/*--------------------------------*- C++ -*----------------------------------*\
| =========                 |                                                 |
| \\      /  F ield         | OpenFOAM: The Open Source CFD Toolbox           |
|  \\    /   O peration     | Version:  2212                                  |
|   \\  /    A nd           | Website:  www.openfoam.com                      |
|    \\/     M anipulation  |                                                 |
\*---------------------------------------------------------------------------*/
FoamFile
{
    version     2.0;
    format      ascii;
    arch        "LSB;label=32;scalar=64";
    class       volScalarField;
    location    "1.5";
    object      alpha.oil;
}
// * * * * * * * * * * * * * * * * * * * * * * * * * * * * * * * * * * * * * //

dimensions      [0 0 0 0 0 0 0];

internalField   nonuniform List<scalar> 
3312
(
1.14804e-06
1.08431e-06
1.03082e-06
8.94787e-07
9.06865e-07
1.34754e-06
3.46672e-06
3.80391e-06
4.08586e-06
4.69876e-06
5.6078e-06
6.70113e-06
1.154e-06
1.00766e-06
9.01925e-07
8.93881e-07
8.94702e-07
8.93068e-07
8.94623e-07
8.93889e-07
8.95123e-07
6.4014e-06
1.05731e-05
1.19158e-05
1.15632e-06
9.44883e-07
8.95023e-07
8.94756e-07
8.94005e-07
0.000306817
0.000470687
0.000701597
0.000974693
0.000251674
1.07061e-05
1.15256e-05
1.15866e-06
9.55263e-07
5.76588e-06
0.000103075
0.00141605
0.00302533
0.00263529
0.00347406
0.00586671
0.00689277
0.00596151
0.000678047
1.16102e-06
1.47939e-06
0.000167658
0.00221865
0.00627178
0.00475982
0.00314522
0.00340592
0.00398239
0.0068573
0.015956
0.0159898
1.16779e-06
1.06196e-05
0.000989554
0.00676198
0.00719913
0.00362332
0.00321393
0.00307895
0.00325468
0.00342679
0.00497735
0.0116292
4.08006e-06
6.53077e-05
0.00162713
0.00818496
0.00718427
0.00325468
0.00309791
0.00325468
0.00313614
0.00329917
0.00322337
0.00333531
3.35185e-05
0.00047906
0.00514222
0.00818826
0.00593187
0.00324072
0.00325468
0.00313614
0.00329917
0.00324315
0.00333531
0.00334646
0.000181405
0.00163974
0.00685022
0.00818496
0.00534734
0.00330523
0.00319036
0.00329917
0.00324253
0.00333531
0.00333409
0.00340289
0.000571615
0.00282357
0.00675751
0.00724906
0.00526196
0.00351522
0.00329917
0.00326177
0.00333531
0.00333201
0.00340289
0.00341238
0.00101083
0.00333598
0.00709202
0.00760482
0.00580624
0.00375987
0.00330455
0.00333531
0.00334793
0.00340289
0.00340981
0.00344544
0.00101786
0.00276958
0.00674881
0.00796816
0.00659367
0.00403031
0.00333531
0.00335026
0.00339707
0.00339769
0.00343398
0.00346223
7.91684e-06
9.22415e-06
1.05696e-05
1.32423e-05
1.96105e-05
3.82694e-05
9.31834e-05
0.000453437
0.00989372
0.160703
0.302345
0.306806
1.28587e-05
1.42472e-05
1.63899e-05
2.88161e-05
0.000106975
0.000505559
0.00136179
0.00717811
0.0786025
0.533677
0.691542
0.518701
1.5747e-05
1.59653e-05
3.45798e-05
0.000205798
0.00163562
0.00678837
0.0146428
0.0583624
0.419279
0.805965
0.894851
0.868441
0.00044138
0.000703818
0.000588776
0.00161715
0.00901762
0.0201832
0.0361064
0.0779511
0.224951
0.637329
0.896614
0.895913
0.0158935
0.0143348
0.0108404
0.0115453
0.0199244
0.0217488
0.0253313
0.0406086
0.172501
0.523892
0.879455
0.897603
0.0242503
0.0395692
0.0425003
0.0410528
0.0262356
0.0200213
0.0201727
0.0477668
0.299858
0.754233
0.898173
0.896223
0.00486202
0.0177248
0.0502748
0.051
0.0477356
0.0378448
0.0394729
0.0796462
0.443459
0.898351
0.896167
0.897722
0.00366945
0.00595825
0.0179798
0.0443266
0.0581648
0.0615867
0.0664909
0.0703997
0.149387
0.697875
0.897722
0.896007
0.00362679
0.0043986
0.00683172
0.0154274
0.0343531
0.055925
0.0780467
0.109575
0.125272
0.261024
0.881973
0.896655
0.0034486
0.00358706
0.00434535
0.00716567
0.0157803
0.0347257
0.0665332
0.111096
0.162251
0.210227
0.69527
0.894965
0.00347275
0.00350005
0.0037919
0.00591576
0.012398
0.0277035
0.0577877
0.103582
0.16687
0.194023
0.401193
0.886537
0.00379884
0.00498667
0.0078814
0.013453
0.0240996
0.0445745
0.0754759
0.108997
0.148521
0.159559
0.225977
0.804322
2.61442e-06
2.31082e-06
2.20907e-06
2.06847e-06
1.8453e-06
1.8237e-06
1.82304e-06
1.82286e-06
1.82368e-06
2.83013e-06
4.77749e-06
4.80799e-06
2.6178e-06
2.57842e-06
2.62592e-06
2.63604e-06
2.63981e-06
2.10068e-06
1.8226e-06
1.82254e-06
2.30249e-06
4.30478e-06
5.79688e-06
5.91125e-06
1.86264e-06
1.5044e-06
1.63022e-06
1.97762e-06
2.46737e-06
2.28165e-06
2.14962e-06
2.37032e-06
3.38466e-06
5.88466e-06
7.54844e-06
7.89457e-06
1.26373e-06
1.04919e-06
1.13851e-06
1.83993e-06
2.27297e-06
2.15109e-06
2.22347e-06
3.33253e-06
4.86121e-06
7.49254e-06
9.56675e-06
1.00961e-05
1.06818e-06
9.90236e-07
1.06866e-06
1.99454e-06
2.0507e-06
1.98988e-06
2.0216e-06
3.50336e-06
6.53996e-06
9.52712e-06
1.17355e-05
1.23137e-05
1.0302e-06
9.91404e-07
1.18395e-06
2.10332e-06
1.98999e-06
1.98905e-06
1.99733e-06
3.68154e-06
7.99479e-06
1.27309e-05
1.58423e-05
1.63752e-05
1.04708e-06
9.90236e-07
1.6314e-06
2.53625e-06
2.62104e-06
2.71558e-06
2.90962e-06
4.50478e-06
8.77225e-06
1.4645e-05
2.02154e-05
2.32564e-05
1.06133e-06
1.06725e-06
2.18719e-06
3.65028e-06
5.13268e-06
6.87198e-06
8.02904e-06
9.09709e-06
1.13695e-05
1.61874e-05
2.24633e-05
2.85858e-05
1.06619e-06
1.32593e-06
2.87201e-06
4.96404e-06
7.92017e-06
1.29486e-05
1.95005e-05
2.45506e-05
2.58882e-05
2.69939e-05
2.94466e-05
3.56879e-05
1.07307e-06
1.6894e-06
3.67421e-06
6.02225e-06
9.24769e-06
1.43583e-05
2.2272e-05
3.32148e-05
4.24058e-05
4.89879e-05
5.11918e-05
5.97513e-05
9.97526e-07
9.96284e-07
3.43054e-06
7.44714e-06
1.11731e-05
1.6168e-05
2.35188e-05
3.32332e-05
4.34105e-05
5.19409e-05
5.77671e-05
6.77505e-05
0.0185985
0.00201403
9.95474e-07
9.99402e-07
9.95474e-07
8.18258e-06
8.07156e-06
3.6984e-05
0.000105337
0.000168583
0.000250799
0.000366852
4.85074e-06
4.87641e-06
6.11234e-06
1.31041e-05
2.66374e-05
5.06182e-05
7.54505e-05
8.89941e-05
8.0721e-05
5.11737e-05
2.09419e-05
1.64418e-05
6.11257e-06
7.42321e-06
9.57495e-06
1.74898e-05
6.21513e-05
0.000243176
0.000686182
0.00122718
0.00148337
0.00123365
0.000546779
3.91943e-05
8.02901e-06
8.91138e-06
1.01124e-05
1.32507e-05
3.69657e-05
0.000283118
0.00141557
0.00364943
0.00582613
0.00661551
0.00476474
0.00101927
1.01047e-05
1.09767e-05
1.22896e-05
1.38219e-05
2.03611e-05
0.000149455
0.00131737
0.00458667
0.00891466
0.0131621
0.0160131
0.00928703
1.22482e-05
1.25378e-05
1.31728e-05
1.43649e-05
1.76172e-05
5.09e-05
0.000610507
0.00307013
0.00761003
0.0148474
0.0276933
0.040699
1.54875e-05
1.48956e-05
1.51822e-05
1.60351e-05
1.75968e-05
2.62055e-05
0.000134743
0.00105409
0.00357332
0.0091809
0.0313723
0.110779
2.18912e-05
1.82586e-05
1.67952e-05
1.70107e-05
1.81154e-05
2.12527e-05
3.34208e-05
0.000200009
0.000983238
0.00332727
0.0198383
0.217466
3.07573e-05
2.78461e-05
2.37916e-05
1.99124e-05
1.89078e-05
2.01498e-05
2.40033e-05
6.04763e-05
0.000339722
0.00152558
0.0080697
0.331808
4.47003e-05
4.62179e-05
3.86729e-05
2.6428e-05
1.90219e-05
1.94679e-05
2.81401e-05
7.32184e-05
0.000276581
0.00146725
0.0131787
0.426426
7.23501e-05
7.12151e-05
5.65109e-05
4.00367e-05
3.61063e-05
5.96165e-05
0.000182241
0.000670843
0.00214068
0.00723041
0.0425451
0.50009
8.1882e-05
9.5335e-05
9.66779e-05
0.000100526
0.000155323
0.000409104
0.00139525
0.00456918
0.0134063
0.033547
0.138786
0.533301
0.000246251
0.000203086
0.000262663
0.000444437
0.000907302
0.00232186
0.00661292
0.0176561
0.0437735
0.0880837
0.265831
0.534112
2.80702e-05
1.98437e-05
1.72864e-05
1.51343e-05
1.26699e-05
9.61244e-06
9.00987e-06
8.98166e-06
8.9539e-06
8.79031e-06
8.20147e-06
7.7761e-06
2.89404e-05
2.82942e-05
2.63929e-05
2.39538e-05
2.18118e-05
1.90477e-05
1.69114e-05
1.50377e-05
1.46973e-05
1.61747e-05
1.78565e-05
1.42007e-05
2.88063e-05
2.16286e-05
2.05075e-05
1.90833e-05
1.83087e-05
1.69954e-05
1.72203e-05
1.82128e-05
2.0227e-05
2.19333e-05
2.19528e-05
1.86169e-05
2.78481e-05
1.62149e-05
1.60179e-05
1.58175e-05
1.54717e-05
1.48889e-05
1.48262e-05
1.65631e-05
1.95347e-05
2.11825e-05
2.19333e-05
2.05371e-05
2.41143e-05
1.60913e-05
1.60545e-05
1.92717e-05
2.83974e-05
1.8764e-05
1.15715e-05
1.34022e-05
1.68659e-05
1.90055e-05
1.97436e-05
2.16188e-05
2.08864e-05
1.61291e-05
1.60913e-05
2.79921e-05
4.4963e-05
2.31312e-05
1.1271e-05
1.11014e-05
1.32752e-05
1.55304e-05
1.92419e-05
2.99324e-05
1.8453e-05
1.61653e-05
1.84503e-05
3.58697e-05
4.55584e-05
2.40887e-05
1.08969e-05
9.52074e-06
1.035e-05
1.19684e-05
2.13444e-05
4.91649e-05
1.71258e-05
1.6196e-05
2.32232e-05
4.20972e-05
4.80608e-05
2.6136e-05
1.07427e-05
7.88015e-06
7.83893e-06
9.39663e-06
2.20554e-05
6.28394e-05
1.63877e-05
1.63649e-05
2.84367e-05
5.10052e-05
5.69952e-05
3.31136e-05
1.22146e-05
6.72068e-06
5.77817e-06
7.55645e-06
1.98789e-05
5.65815e-05
1.64109e-05
1.63875e-05
0.000121279
0.000522375
0.000879307
0.000638223
9.03462e-05
5.73943e-06
5.75878e-06
5.88395e-06
1.59994e-05
4.14083e-05
0.00191181
0.00452574
0.00829607
0.012354
0.0147845
0.0134507
0.00761925
0.0018667
5.86402e-05
4.98198e-06
5.11409e-06
2.54423e-05
0.0518665
0.0719313
0.0758876
0.0680784
0.0670329
0.0637011
0.0531244
0.0350938
0.0133938
0.00165574
0.00206223
0.00209855
6.49657e-06
5.87577e-06
5.86223e-06
5.87553e-06
5.86406e-06
5.87856e-06
5.87207e-06
5.87257e-06
5.86552e-06
5.87187e-06
5.87188e-06
5.87889e-06
8.22705e-06
5.86248e-06
5.87706e-06
5.86102e-06
7.50602e-06
7.16874e-06
5.87675e-06
5.86474e-06
5.87111e-06
5.8644e-06
6.41997e-06
2.91462e-05
1.11053e-05
8.54625e-06
1.23092e-05
2.10827e-05
3.01013e-05
2.9964e-05
1.8536e-05
5.87149e-06
5.86004e-06
5.87069e-06
6.05001e-06
0.000130778
1.68658e-05
1.88015e-05
2.95108e-05
5.02008e-05
8.32745e-05
0.000157546
0.000401569
0.000937455
0.00124168
0.000411758
2.57254e-05
0.000466836
2.69874e-05
3.7897e-05
5.91355e-05
0.000103004
0.000253648
0.00106466
0.00434024
0.0110305
0.0155823
0.0121641
0.00161511
0.00128048
4.97425e-05
7.67523e-05
0.000116888
0.000232245
0.00102279
0.00565418
0.0188695
0.0324721
0.041616
0.0503462
0.0382328
0.00969724
9.61457e-05
0.000147294
0.000214538
0.000557462
0.00387324
0.0185104
0.0368325
0.0423972
0.0479534
0.0798545
0.149873
0.23877
0.000150461
0.000263259
0.000385465
0.00146619
0.0118129
0.0343345
0.0345032
0.0294463
0.0346643
0.076884
0.195975
0.271469
0.000143173
0.000331123
0.000634224
0.00252381
0.0278159
0.0341599
0.01995
0.0139943
0.0202071
0.0469862
0.139335
0.271124
0.000103173
0.000277312
0.000645771
0.00467512
0.0294185
0.0296578
0.011777
0.00907426
0.0145488
0.0280992
0.0769577
0.271452
5.87974e-05
0.000153838
0.00039939
0.00893363
0.029087
0.0187804
0.00954962
0.00905267
0.0136767
0.0260517
0.0538356
0.271096
0.000480191
0.000163301
0.000164749
0.00822145
0.0241192
0.0153237
0.0122717
0.0197342
0.0361551
0.0596959
0.088682
0.271248
2.29505e-06
2.28847e-06
2.28248e-06
2.27573e-06
2.27013e-06
2.22723e-06
2.18161e-06
2.17973e-06
2.17518e-06
2.17973e-06
2.22593e-06
2.93261e-06
2.44714e-06
3.10397e-06
3.62485e-06
3.48433e-06
3.06183e-06
2.57389e-06
2.4335e-06
2.30563e-06
2.23222e-06
2.67027e-06
3.55745e-06
4.5891e-06
4.3804e-06
4.62601e-06
4.61655e-06
4.06917e-06
3.03982e-06
2.335e-06
2.24787e-06
2.47268e-06
2.79902e-06
3.53627e-06
5.06607e-06
6.63684e-06
4.63541e-06
4.62891e-06
4.63719e-06
4.30479e-06
3.19471e-06
2.07904e-06
1.95843e-06
2.28939e-06
2.95148e-06
4.10904e-06
5.84537e-06
8.0794e-06
4.6273e-06
4.63541e-06
4.41673e-06
3.51838e-06
2.37799e-06
1.8971e-06
1.89071e-06
1.90884e-06
2.72592e-06
4.11947e-06
6.18157e-06
9.07474e-06
4.63247e-06
3.73477e-06
3.01789e-06
2.27745e-06
1.89767e-06
1.89297e-06
1.89729e-06
1.89174e-06
2.09949e-06
3.96126e-06
6.22767e-06
9.04913e-06
4.28056e-06
2.60201e-06
1.98724e-06
1.8981e-06
1.89562e-06
1.89652e-06
1.89452e-06
2.40004e-05
9.33037e-05
5.53767e-05
6.19754e-06
8.86522e-06
3.72549e-06
2.04834e-06
1.90059e-06
1.89804e-06
1.8981e-06
1.61794e-05
0.00024189
0.00111318
0.00256318
0.00329513
0.00164624
8.44684e-05
3.51714e-06
1.99316e-06
1.90057e-06
7.36142e-06
7.65287e-05
0.000543812
0.00233006
0.00602391
0.0108994
0.0159561
0.0165344
0.00831783
3.53578e-06
1.84886e-05
0.000105639
0.000409732
0.00126775
0.00365928
0.00854002
0.0156282
0.0229888
0.0298191
0.0364604
0.0346421
0.000171789
0.000598978
0.00285236
0.00688034
0.0117992
0.0174261
0.0248081
0.0335699
0.0408994
0.0449288
0.0472655
0.050246
0.0251575
0.0352666
0.0459189
0.0550027
0.0589835
0.0617965
0.0660352
0.0704039
0.0731598
0.0708128
0.0618866
0.0570195
3.5551e-06
4.49317e-06
5.78109e-06
7.18193e-06
8.05618e-06
8.18515e-06
7.96024e-06
7.92879e-06
7.88756e-06
7.9296e-06
7.88766e-06
0.000116181
6.10564e-06
8.54723e-06
1.12966e-05
1.33649e-05
1.41697e-05
1.28505e-05
1.07348e-05
1.12217e-05
1.30966e-05
9.27991e-06
9.38165e-06
0.000239879
9.06248e-06
1.27204e-05
1.64358e-05
1.90818e-05
2.05307e-05
2.38584e-05
3.7684e-05
9.45217e-05
0.000166263
5.06199e-05
3.85118e-05
0.000610305
1.16934e-05
1.70646e-05
2.19756e-05
2.39715e-05
2.33151e-05
4.83499e-05
0.000218611
0.000689215
0.000996244
0.000270392
0.000277638
0.0011373
1.36347e-05
2.04585e-05
2.64975e-05
2.77626e-05
2.50958e-05
8.36533e-05
0.000865791
0.00254173
0.00271435
0.000669389
0.000844393
0.00308783
1.38987e-05
2.2732e-05
2.87527e-05
2.87346e-05
2.81076e-05
0.000113532
0.00172861
0.00483722
0.00458668
0.00151078
0.00153656
0.021802
1.30102e-05
2.12969e-05
2.73736e-05
2.75706e-05
3.44705e-05
0.000146095
0.00196315
0.00576243
0.00640057
0.00442067
0.00239476
0.0799002
1.29006e-05
1.6979e-05
2.2368e-05
2.6212e-05
6.42643e-05
0.000258272
0.00160786
0.00571779
0.00749271
0.00801863
0.0042778
0.132
0.000710331
1.85481e-05
1.84549e-05
3.73309e-05
0.000306995
0.0012621
0.00303417
0.0067587
0.00649429
0.00917003
0.00979078
0.166888
0.0174434
0.00190711
4.27467e-05
0.000266945
0.00196662
0.00502056
0.00595748
0.00677356
0.00517222
0.0107364
0.0251423
0.236837
0.0458643
0.0242678
0.003047
0.00325814
0.00606324
0.00618572
0.00459477
0.00499948
0.00481166
0.0151394
0.078942
0.238564
0.0583166
0.0528786
0.0286771
0.0115034
0.00544071
0.00416698
0.00418675
0.00416698
0.00491627
0.0196398
0.0711538
0.215102
0.0615327
0.0426335
0.0384513
0.0254325
0.011171
0.00464175
0.00336492
0.00339707
0.00348994
0.00430797
0.00608495
0.00913498
0.346566
0.407124
0.410348
0.37272
0.284625
0.183344
0.123111
0.0958867
0.0795952
0.0722108
0.0745178
0.0838413
0.451757
0.452587
0.452011
0.452942
0.452706
0.453719
0.453202
0.45487
0.453187
0.455339
0.416664
0.357387
0.453008
0.451631
0.453095
0.452131
0.453172
0.452603
0.453563
0.437957
0.414712
0.391109
0.374565
0.360314
0.0142606
0.0226134
0.0356288
0.0566176
0.0847953
0.117717
0.14258
0.144384
0.139553
0.129438
0.127029
0.456751
0.0991078
0.11832
0.142578
0.169914
0.18723
0.186559
0.177543
0.160475
0.133859
0.106043
0.0716787
0.132802
0.323592
0.303329
0.288822
0.265548
0.232033
0.194092
0.153375
0.116909
0.0900128
0.070387
0.0461265
0.0456426
0.334923
0.300148
0.247757
0.210472
0.16754
0.124694
0.0951858
0.0755679
0.061102
0.0470206
0.0403417
0.0401406
0.339648
0.204891
0.102015
0.0391783
0.00666602
8.07131e-06
0.00827527
0.0139786
0.0151753
0.0155673
0.0175233
0.0188392
0.215523
0.311955
0.312049
0.295392
0.267242
0.249058
0.2185
0.18895
0.173385
0.157917
0.160246
0.157236
0.0671552
0.126321
0.17057
0.288022
0.325694
0.330444
0.325694
0.329433
0.326159
0.32734
0.327466
0.330446
0.0405469
0.0455471
0.0494755
0.0788539
0.118772
0.168483
0.219494
0.245078
0.279113
0.274216
0.279165
0.333846
0.0132821
0.00654863
0.00506194
0.00617413
0.00897821
0.0148819
0.0272659
0.0518992
0.0911756
0.143087
0.19614
0.374733
0.126234
0.0923096
0.0891774
0.0960372
0.10851
0.126954
0.151944
0.184135
0.204857
0.205792
0.206768
0.231068
0.33608
0.359614
0.381551
0.391657
0.397011
0.394789
0.386251
0.373292
0.351496
0.315956
0.261016
0.203066
0.440114
0.525229
0.524925
0.50653
0.473285
0.42894
0.378077
0.328585
0.290497
0.262738
0.233916
0.191958
0.322358
0.270255
0.221603
0.18104
0.170728
0.178679
0.193199
0.202868
0.180855
0.0982354
0.0645588
0.0470137
0.274675
0.297471
0.29915
0.295005
0.292741
0.307567
0.356178
0.422006
0.441918
0.415704
0.327421
0.195399
0.199758
0.216094
0.236531
0.25183
0.267346
0.285926
0.318509
0.396936
0.446393
0.446295
0.408886
0.277
0.14968
0.13294
0.134791
0.146857
0.167811
0.181322
0.190626
0.226085
0.329225
0.394606
0.388674
0.346394
0.0175821
0.00145429
0.000437266
0.00845829
0.0287871
0.0390115
0.0548716
0.0812088
0.11233
0.141306
0.161136
0.203378
0.0723173
0.0140958
0.0138491
0.0311744
0.0853431
0.140725
0.166875
0.182439
0.191876
0.201408
0.209562
0.20948
0.119868
0.101663
0.110878
0.132715
0.178079
0.204693
0.204686
0.195583
0.181498
0.165135
0.146095
0.140061
0.33269
0.268642
0.216359
0.182238
0.149655
0.125794
0.11451
0.110873
0.104331
0.0934761
0.0830006
0.0778522
0.189842
0.194275
0.186691
0.163618
0.149522
0.147416
0.142251
0.134877
0.126899
0.113519
0.0935418
0.0748406
0.209104
0.209186
0.206578
0.20154
0.201394
0.201714
0.199466
0.18918
0.172379
0.152759
0.132254
0.110525
0.140094
0.139702
0.143297
0.145881
0.150534
0.163384
0.171776
0.169578
0.165042
0.158224
0.149555
0.13478
0.0753579
0.0767535
0.0808321
0.0871215
0.0952565
0.106465
0.118838
0.127854
0.133317
0.131683
0.128
0.123362
0.071848
0.0734148
0.0690843
0.0442512
0.0112215
0.00439974
0.00604894
0.00954018
0.0172452
0.0326548
0.057015
0.107812
0.10291
0.10706
0.11742
0.119167
0.0945969
0.0753606
0.0774715
0.0870935
0.102942
0.125755
0.162237
0.239899
0.129509
0.136743
0.170971
0.231922
0.234618
0.236134
0.237387
0.254593
0.272538
0.292571
0.382081
0.451971
0.123029
0.122706
0.126374
0.152114
0.223116
0.251679
0.267041
0.279234
0.291451
0.306505
0.357321
0.451053
0.31854
0.331441
0.325446
0.297765
0.262977
0.235159
0.193894
0.122971
0.0613943
0.0612847
0.0816175
0.0814547
0.18992
0.185108
0.182409
0.177397
0.168192
0.159134
0.133817
0.0987618
0.0787477
0.0898752
0.0925323
0.103828
0.18871
0.181774
0.17965
0.177094
0.168641
0.154811
0.122752
0.0897994
0.0896549
0.0738653
0.0391726
0.0778875
0.193508
0.189776
0.187221
0.183634
0.169605
0.139915
0.110194
0.0878325
0.0832054
0.0506055
0.0359386
0.0557303
0.0861155
0.117809
0.138768
0.310079
0.153216
0.0480096
0.0480301
0.0473907
0.0403448
0.0403417
0.0400195
0.0403417
0.14297
0.158281
0.159687
0.336994
0.336906
0.0707811
0.0511924
0.0511779
0.0511631
0.0415491
0.0402287
0.0409537
0.191932
0.155363
0.144213
0.294755
0.464879
0.18917
0.049605
0.0489357
0.0502879
0.0404499
0.0397074
0.0404204
0.230288
0.138778
0.120767
0.215451
0.464984
0.484461
0.0840485
0.042682
0.0407033
0.039427
0.0401208
0.0395846
0.0407328
0.040788
0.041415
0.112621
0.274863
0.275067
0.14963
0.0811384
0.103316
0.117227
0.206536
0.485395
0.0447371
0.0480944
0.0560945
0.115913
0.197865
0.171029
0.0741728
0.0404833
0.0534397
0.0759052
0.210929
0.629098
0.0476834
0.0602049
0.0868711
0.158829
0.226319
0.182612
0.0782916
0.0407193
0.0868614
0.0765259
0.218672
0.715333
0.0446518
0.0746923
0.157506
0.29899
0.372668
0.128125
0.0782855
0.103828
0.1121
0.0750263
0.21588
0.799322
0.606644
0.547684
0.321595
0.180476
0.117116
0.10025
0.104055
0.152528
0.153809
0.126736
0.117314
0.116444
0.606963
0.344983
0.123092
0.0815744
0.0643623
0.0695225
0.112032
0.216478
0.206219
0.0950166
0.0768209
0.081029
0.502306
0.162077
0.0605389
0.0691876
0.0610673
0.0779788
0.149308
0.246479
0.163471
0.0548669
0.0549039
0.06348
0.366749
0.0471647
0.0446931
0.0597803
0.053279
0.0797208
0.246193
0.282926
0.111675
0.0548727
0.0727279
0.0763307
0.0973363
0.0900571
0.0925794
0.102433
0.115202
0.118068
0.139125
0.20527
0.290698
0.418459
0.629108
0.859547
0.0818809
0.0820414
0.0836226
0.0891129
0.0935034
0.100702
0.131819
0.191104
0.273134
0.449921
0.784714
0.887528
0.0769331
0.0832322
0.0879823
0.0897098
0.0900979
0.108342
0.149046
0.200123
0.251255
0.33583
0.6753
0.918578
0.0946503
0.108183
0.104527
0.0926339
0.0917341
0.122762
0.174363
0.221575
0.235435
0.248786
0.660419
0.924852
0.513424
0.152846
0.0834674
0.0683103
0.0605113
0.0646132
0.0744347
0.0849211
0.0756117
0.0602848
0.058942
0.0629524
0.510765
0.133127
0.0571258
0.0474936
0.0474999
0.0548031
0.0632676
0.0733301
0.06959
0.0590769
0.0589411
0.067937
0.679322
0.211804
0.0652086
0.0473925
0.0469609
0.0472821
0.05149
0.0614392
0.061971
0.0526295
0.0512893
0.0641752
0.813136
0.332203
0.0775184
0.0477024
0.0412216
0.0371335
0.040436
0.0518662
0.0548743
0.048141
0.0466347
0.0558626
0.0630176
0.0686904
0.0716724
0.0843325
0.0941832
0.0944885
0.0961199
0.104032
0.109213
0.109643
0.112875
0.142823
0.0678951
0.065203
0.0608118
0.0829012
0.106605
0.113701
0.114172
0.114238
0.110047
0.146472
0.284735
0.38226
0.0679282
0.0548539
0.0460212
0.0678042
0.124197
0.177358
0.189337
0.179134
0.198298
0.391297
0.533807
0.536495
0.0650527
0.0539499
0.0460133
0.0514622
0.123605
0.251424
0.320723
0.318023
0.395004
0.527251
0.537196
0.536783
0.135559
0.109109
0.124253
0.141417
0.126627
0.134804
0.177952
0.198944
0.200294
0.197392
0.222205
0.279881
0.238618
0.104413
0.095372
0.0908146
0.0567293
0.0653784
0.130894
0.179467
0.190041
0.18892
0.188925
0.18892
0.359983
0.134114
0.106844
0.10528
0.0325975
0.0479547
0.119247
0.178946
0.196853
0.194956
0.190785
0.189
0.531627
0.323228
0.222304
0.140716
0.0127249
0.0341197
0.102965
0.170679
0.199384
0.200676
0.19567
0.194207
0.195518
0.194071
0.192139
0.18724
0.165969
0.12068
0.092316
0.102565
0.0866677
0.0416506
0.035843
0.0359386
0.196674
0.197083
0.196506
0.188663
0.151895
0.0996636
0.080148
0.102568
0.100167
0.0446973
0.0359386
0.0359149
0.197504
0.199639
0.19975
0.183406
0.124153
0.0767382
0.0603905
0.0999197
0.100296
0.0506826
0.040352
0.0411192
0.198862
0.20093
0.199801
0.154779
0.0852718
0.0676566
0.0389485
0.0672442
0.0974499
0.055489
0.0483007
0.0452652
0.200157
0.201752
0.19367
0.121911
0.0509275
0.0677623
0.0386387
0.0367377
0.0713623
0.058591
0.054073
0.0417863
0.201088
0.202082
0.186332
0.0931169
0.0341727
0.0626981
0.0522113
0.0366588
0.0405444
0.0540908
0.0531549
0.0371906
0.201693
0.202474
0.182366
0.074203
0.0233128
0.0413533
0.0470606
0.0404006
0.0403927
0.0469736
0.0519039
0.0317842
0.201981
0.202716
0.184352
0.061518
0.0124131
0.0137715
0.0250497
0.0365755
0.0447021
0.0559139
0.0594519
0.0230535
0.202364
0.202924
0.197432
0.0499243
0.00747876
0.00429845
0.0102489
0.0314552
0.0580763
0.0594687
0.0594871
0.0146077
0.202896
0.203332
0.203417
0.0394605
0.00706222
0.00428677
0.00532125
0.0107054
0.0189078
0.0299607
0.0325877
0.0146264
0.203332
0.203483
0.20337
0.0370247
0.0148366
0.00836753
0.00530766
0.00759826
0.0148255
0.0195371
0.0183675
0.0184385
0.203401
0.20337
0.203663
0.0450386
0.0384135
0.0236147
0.0453412
0.0570808
0.091229
0.132595
0.132605
0.131354
0.246129
0.128814
0.0802704
0.113381
0.255979
0.499956
0.285022
0.0587885
0.0400047
0.0400181
0.0393875
0.0401287
0.24629
0.151395
0.0552961
0.0539861
0.0995416
0.486402
0.56499
0.178269
0.0448782
0.0397148
0.0400181
0.0398131
0.246224
0.20794
0.0570702
0.0192847
0.0197837
0.194795
0.582552
0.564188
0.165423
0.04808
0.0397451
0.0419953
0.203081
0.207838
0.121265
0.0190739
0.0189861
0.0387935
0.357258
0.59068
0.563591
0.164581
0.0544448
0.0623903
0.138896
0.201376
0.201767
0.0516725
0.0206873
0.027285
0.0794906
0.432326
0.590826
0.538243
0.162893
0.118373
0.116257
0.139424
0.20166
0.110322
0.0388692
0.0323637
0.0425045
0.129095
0.501059
0.585064
0.501697
0.233585
0.116256
0.117629
0.141452
0.10935
0.0532001
0.0389828
0.0637972
0.109401
0.214004
0.560104
0.564341
0.42229
0.116257
0.11775
0.0940532
0.0662705
0.0551529
0.0761152
0.152269
0.152474
0.124914
0.274057
0.502287
0.436027
0.205135
0.267833
0.133114
0.0664752
0.0880733
0.139361
0.150637
0.114787
0.110398
0.110577
0.227674
0.296839
0.490339
0.658139
0.572106
0.466468
0.507373
0.503956
0.267815
0.122777
0.110577
0.110398
0.110572
0.135949
0.708271
0.829581
0.902297
0.94124
0.935063
0.900991
0.775793
0.643631
0.575062
0.539937
0.579303
0.547566
0.737863
0.834099
0.92128
0.949434
0.949471
0.949483
0.949519
0.949532
0.949566
0.949581
0.949614
0.94963
0.046519
0.115366
0.294049
0.496932
0.437402
0.169123
0.113059
0.193401
0.116619
0.0690732
0.190075
0.848404
0.0566669
0.18021
0.428546
0.621579
0.484721
0.29634
0.228026
0.207063
0.105475
0.0690272
0.189689
0.855146
0.0809882
0.250864
0.520169
0.622188
0.506469
0.324321
0.196326
0.115205
0.0851323
0.0689955
0.211135
0.896561
0.124206
0.306863
0.536151
0.59677
0.342564
0.104435
0.0807318
0.0776014
0.0691452
0.0663283
0.230838
0.933988
0.191208
0.333095
0.495102
0.411895
0.142396
0.0532775
0.0581256
0.0625709
0.0546582
0.05519
0.251612
0.949847
0.276801
0.330755
0.358401
0.198313
0.0704141
0.0469983
0.0483133
0.0481676
0.0451707
0.0466605
0.306617
0.949765
0.344129
0.311904
0.22113
0.088364
0.0448414
0.0448142
0.0443906
0.0446858
0.0445789
0.0458047
0.461688
0.949902
0.353073
0.273945
0.152872
0.063114
0.0448142
0.0442104
0.0446858
0.0443906
0.0446148
0.0530886
0.681442
0.949801
0.265422
0.197002
0.110456
0.0533805
0.0443602
0.0446858
0.0442232
0.0445715
0.0443945
0.146386
0.849831
0.949919
0.122954
0.0877101
0.0556258
0.0530048
0.054926
0.0445186
0.0446721
0.0443945
0.139401
0.608973
0.944975
0.949826
0.433529
0.351176
0.410725
0.533585
0.63845
0.612258
0.616145
0.747168
0.934014
0.949914
0.949813
0.949875
0.949662
0.949679
0.949743
0.949729
0.949792
0.949771
0.949833
0.94981
0.949876
0.94983
0.949867
0.94983
0.322294
0.0293451
0.0350634
0.0437122
0.0396326
0.0640586
0.304756
0.330224
0.118575
0.0548435
0.121342
0.121091
0.434962
0.0293434
0.0311929
0.0309814
0.0258613
0.040803
0.280815
0.428117
0.132025
0.0576773
0.122121
0.121726
0.588991
0.0293418
0.0284441
0.0225196
0.0166832
0.0212846
0.21545
0.448113
0.146808
0.0310403
0.0819274
0.122407
0.682532
0.0327995
0.0251415
0.018033
0.0142867
0.0147623
0.113247
0.44782
0.217751
0.0247628
0.0324897
0.0898436
0.717742
0.0467596
0.0214655
0.0156212
0.0142511
0.0142867
0.0354934
0.448113
0.331765
0.024504
0.0245404
0.03663
0.731016
0.0764652
0.0186521
0.0144688
0.0142867
0.0142326
0.0184445
0.315456
0.376358
0.0327602
0.024504
0.0245404
0.748986
0.140863
0.0179678
0.0142867
0.0142002
0.0142867
0.0163762
0.122824
0.37734
0.0569376
0.0245404
0.0252359
0.749114
0.270448
0.0199191
0.0142596
0.0142867
0.0141727
0.0153554
0.0837182
0.354422
0.10259
0.0276005
0.0314496
0.7491
0.478281
0.0300301
0.0142867
0.0141733
0.0142867
0.0146874
0.0557435
0.232202
0.145579
0.0444521
0.0454072
0.749078
0.689291
0.170145
0.0359042
0.0166103
0.0147924
0.0190319
0.0387946
0.12235
0.157617
0.0738885
0.0667104
0.749057
0.749035
0.71577
0.298954
0.130266
0.0923567
0.0619617
0.0475548
0.0748862
0.158271
0.102242
0.0859427
0.749035
0.749014
0.749022
0.749048
0.747435
0.430151
0.153966
0.0703614
0.0697696
0.098091
0.102756
0.0920998
0.121342
0.121968
0.113992
0.100125
0.0984613
0.136102
0.210105
0.268902
0.223753
0.246958
0.57285
0.924817
0.12228
0.121342
0.111897
0.105944
0.107346
0.151015
0.261791
0.309684
0.174248
0.255621
0.518139
0.884807
0.121342
0.122057
0.112458
0.109241
0.119359
0.185953
0.331405
0.314386
0.172483
0.240381
0.458305
0.84962
0.112545
0.119217
0.12064
0.12398
0.145734
0.2552
0.344586
0.264185
0.171414
0.230862
0.450972
0.818149
0.0758242
0.112821
0.137299
0.148784
0.179989
0.315055
0.344993
0.179422
0.172483
0.229875
0.455073
0.797612
0.0592125
0.116721
0.152109
0.160524
0.183135
0.298614
0.330377
0.172483
0.172161
0.264893
0.456279
0.791113
0.0645296
0.134671
0.152576
0.146699
0.148038
0.203551
0.222131
0.177219
0.179495
0.300806
0.433826
0.795973
0.0788623
0.135343
0.137091
0.0952756
0.0695095
0.0707777
0.0884374
0.184543
0.256823
0.29361
0.426154
0.853461
0.0935546
0.125959
0.0883912
0.0517833
0.0514746
0.0582385
0.1075
0.261786
0.316004
0.294102
0.42624
0.906549
0.094714
0.105919
0.0916516
0.127641
0.366092
0.669236
0.713161
0.776292
0.471355
0.312755
0.615232
0.96361
0.0933499
0.112477
0.248852
0.824186
0.963617
0.987867
0.986205
0.988348
0.899885
0.873202
0.934144
0.986413
0.0973262
0.177099
0.59032
0.989229
0.989229
0.989229
0.989229
0.989229
0.989229
0.989229
0.989229
0.989228
0.897514
0.561726
0.105634
0.0457078
0.0344237
0.028515
0.0323398
0.0439158
0.0483655
0.0454213
0.0454084
0.0531013
0.93036
0.822118
0.227646
0.0429716
0.0284244
0.0234373
0.0271557
0.0377035
0.0424374
0.0427327
0.0454207
0.0519583
0.943127
0.954919
0.562668
0.0428282
0.0244254
0.022072
0.02364
0.0315576
0.0359736
0.0370397
0.0367287
0.0354601
0.953726
0.981968
0.845845
0.0609631
0.022421
0.021997
0.0220015
0.0264816
0.0300681
0.030498
0.0274665
0.0256857
0.971202
0.983394
0.90389
0.138878
0.0220063
0.0219866
0.0219374
0.0240715
0.0264374
0.0262729
0.0231659
0.021599
0.986162
0.983374
0.878269
0.190673
0.0219832
0.021912
0.0219038
0.021854
0.023028
0.0229855
0.0210316
0.0199887
0.98897
0.976771
0.738293
0.192297
0.0226711
0.0219013
0.021852
0.021821
0.0217799
0.0217497
0.0205916
0.0199231
0.98903
0.960793
0.552087
0.144925
0.0252806
0.0218855
0.0218728
0.0218248
0.0225902
0.0243015
0.0223409
0.0199495
0.98898
0.945959
0.454622
0.0967079
0.0230746
0.021935
0.0218747
0.0218679
0.0219027
0.0255511
0.0255771
0.0234925
0.989013
0.979368
0.742562
0.249676
0.0665267
0.0318634
0.086902
0.113575
0.0694016
0.0336972
0.0221249
0.0199248
0.988996
0.988996
0.987305
0.956398
0.88759
0.849241
0.947671
0.951425
0.811512
0.519741
0.2885
0.173118
0.988991
0.98898
0.98898
0.988963
0.988968
0.988949
0.988958
0.988937
0.988947
0.984497
0.962989
0.934772
0.0638575
0.0644265
0.0522416
0.0513088
0.105068
0.255257
0.381939
0.381827
0.359398
0.268398
0.14583
0.0879551
0.0619427
0.0794581
0.0698691
0.056458
0.0797216
0.196144
0.351464
0.366573
0.217638
0.105
0.0733451
0.0547725
0.043615
0.0892311
0.0932477
0.0694458
0.0715683
0.107435
0.243002
0.292408
0.150481
0.124321
0.0749844
0.0548002
0.039374
0.1005
0.12253
0.0886407
0.0728726
0.0795269
0.13992
0.20144
0.158487
0.11893
0.0728605
0.0547725
0.0356023
0.101041
0.140682
0.125849
0.0905689
0.0905002
0.137217
0.171087
0.152869
0.101646
0.0718428
0.0548002
0.0266807
0.0819773
0.140509
0.140682
0.130076
0.120475
0.128915
0.112168
0.0970035
0.100227
0.0792152
0.0579463
0.0199495
0.0323096
0.0974319
0.128651
0.12216
0.107936
0.0762008
0.0398498
0.0293745
0.0745013
0.0844661
0.0980522
0.0198528
0.0199102
0.025744
0.0453569
0.0510629
0.0435225
0.0258178
0.0198736
0.0197888
0.0274423
0.0562961
0.137829
0.0201746
0.019818
0.0198721
0.0198046
0.0198571
0.0198478
0.0198673