/*--------------------------------*- C++ -*----------------------------------*\
| =========                 |                                                 |
| \\      /  F ield         | OpenFOAM: The Open Source CFD Toolbox           |
|  \\    /   O peration     | Version:  2212                                  |
|   \\  /    A nd           | Website:  www.openfoam.com                      |
|    \\/     M anipulation  |                                                 |
\*---------------------------------------------------------------------------*/
FoamFile
{
    version     2.0;
    format      ascii;
    arch        "LSB;label=32;scalar=64";
    class       volScalarField;
    location    "1.5";
    object      alpha.air;
}
// * * * * * * * * * * * * * * * * * * * * * * * * * * * * * * * * * * * * * //

dimensions      [0 0 0 0 0 0 0];

internalField   nonuniform List<scalar> 
3312
(
0.999999
0.999999
0.999999
0.999999
0.999999
0.999999
0.999997
0.999996
0.999996
0.999995
0.999994
0.999993
0.999999
0.999999
0.999999
0.999999
0.999999
0.999999
0.999999
0.999999
0.999999
0.999994
0.999989
0.999988
0.999999
0.999999
0.999999
0.999999
0.999999
0.999693
0.999529
0.999298
0.999025
0.999748
0.999989
0.999988
0.999999
0.999999
0.999994
0.999897
0.998584
0.996975
0.997365
0.996526
0.994133
0.993107
0.994038
0.999322
0.999999
0.999999
0.999832
0.997781
0.993728
0.99524
0.996855
0.996594
0.996018
0.993143
0.984044
0.98401
0.999999
0.999989
0.99901
0.993238
0.992801
0.996377
0.996786
0.996921
0.996745
0.996573
0.995023
0.988371
0.999996
0.999935
0.998373
0.991815
0.992816
0.996745
0.996902
0.996745
0.996864
0.996701
0.996777
0.996665
0.999966
0.999521
0.994858
0.991812
0.994068
0.996759
0.996745
0.996864
0.996701
0.996757
0.996665
0.996654
0.999819
0.99836
0.99315
0.991815
0.994653
0.996695
0.99681
0.996701
0.996757
0.996665
0.996666
0.996597
0.999428
0.997176
0.993242
0.992751
0.994738
0.996485
0.996701
0.996738
0.996665
0.996668
0.996597
0.996588
0.998989
0.996664
0.992908
0.992395
0.994194
0.99624
0.996695
0.996665
0.996652
0.996597
0.99659
0.996555
0.998982
0.99723
0.993251
0.992032
0.993406
0.99597
0.996665
0.99665
0.996603
0.996602
0.996566
0.996538
0.999992
0.999991
0.999989
0.999987
0.99998
0.999962
0.999907
0.999547
0.990106
0.839297
0.697655
0.693194
0.999987
0.999986
0.999984
0.999971
0.999893
0.999494
0.998638
0.992822
0.921398
0.466323
0.308458
0.481299
0.999984
0.999984
0.999965
0.999794
0.998364
0.993212
0.985357
0.941638
0.580721
0.194035
0.105149
0.131559
0.999559
0.999296
0.999411
0.998383
0.990982
0.979817
0.963894
0.922049
0.775049
0.362671
0.103386
0.104087
0.984107
0.985665
0.98916
0.988455
0.980076
0.978251
0.974669
0.959391
0.827499
0.476108
0.120545
0.102397
0.97575
0.960431
0.9575
0.958947
0.973764
0.979979
0.979827
0.952233
0.700142
0.245767
0.101827
0.103777
0.995138
0.982275
0.949725
0.949
0.952264
0.962155
0.960527
0.920354
0.556541
0.101649
0.103833
0.102278
0.996331
0.994042
0.98202
0.955673
0.941835
0.938413
0.933509
0.9296
0.850613
0.302125
0.102278
0.103993
0.996373
0.995601
0.993168
0.984573
0.965647
0.944075
0.921953
0.890425
0.874728
0.738976
0.118027
0.103345
0.996551
0.996413
0.995655
0.992834
0.98422
0.965274
0.933467
0.888904
0.837749
0.789773
0.30473
0.105035
0.996527
0.9965
0.996208
0.994084
0.987602
0.972296
0.942212
0.896418
0.83313
0.805977
0.598807
0.113463
0.996201
0.995013
0.992119
0.986547
0.9759
0.955425
0.924524
0.891003
0.851479
0.840441
0.774023
0.195678
0.999997
0.999998
0.999998
0.999998
0.999998
0.999998
0.999998
0.999998
0.999998
0.999997
0.999995
0.999995
0.999997
0.999997
0.999997
0.999997
0.999997
0.999998
0.999998
0.999998
0.999998
0.999996
0.999994
0.999994
0.999998
0.999998
0.999998
0.999998
0.999998
0.999998
0.999998
0.999998
0.999997
0.999994
0.999992
0.999992
0.999999
0.999999
0.999999
0.999998
0.999998
0.999998
0.999998
0.999997
0.999995
0.999993
0.99999
0.99999
0.999999
0.999999
0.999999
0.999998
0.999998
0.999998
0.999998
0.999996
0.999993
0.99999
0.999988
0.999988
0.999999
0.999999
0.999999
0.999998
0.999998
0.999998
0.999998
0.999996
0.999992
0.999987
0.999984
0.999984
0.999999
0.999999
0.999998
0.999997
0.999997
0.999997
0.999997
0.999995
0.999991
0.999985
0.99998
0.999977
0.999999
0.999999
0.999998
0.999996
0.999995
0.999993
0.999992
0.999991
0.999989
0.999984
0.999978
0.999971
0.999999
0.999999
0.999997
0.999995
0.999992
0.999987
0.99998
0.999975
0.999974
0.999973
0.999971
0.999964
0.999999
0.999998
0.999996
0.999994
0.999991
0.999986
0.999978
0.999967
0.999958
0.999951
0.999949
0.99994
0.999999
0.999999
0.999997
0.999993
0.999989
0.999984
0.999976
0.999967
0.999957
0.999948
0.999942
0.999932
0.981402
0.997986
0.999999
0.999999
0.999999
0.999992
0.999992
0.999963
0.999895
0.999831
0.999749
0.999633
0.999995
0.999995
0.999994
0.999987
0.999973
0.999949
0.999925
0.999911
0.999919
0.999949
0.999979
0.999984
0.999994
0.999993
0.99999
0.999983
0.999938
0.999757
0.999314
0.998773
0.998517
0.998766
0.999453
0.999961
0.999992
0.999991
0.99999
0.999987
0.999963
0.999717
0.998584
0.996351
0.994174
0.993384
0.995235
0.998981
0.99999
0.999989
0.999988
0.999986
0.99998
0.999851
0.998683
0.995413
0.991085
0.986838
0.983987
0.990713
0.999988
0.999987
0.999987
0.999986
0.999982
0.999949
0.999389
0.99693
0.99239
0.985153
0.972307
0.959301
0.999985
0.999985
0.999985
0.999984
0.999982
0.999974
0.999865
0.998946
0.996427
0.990819
0.968628
0.889221
0.999978
0.999982
0.999983
0.999983
0.999982
0.999979
0.999967
0.9998
0.999017
0.996673
0.980162
0.782534
0.999969
0.999972
0.999976
0.99998
0.999981
0.99998
0.999976
0.99994
0.99966
0.998474
0.99193
0.668192
0.999955
0.999954
0.999961
0.999974
0.999981
0.999981
0.999972
0.999927
0.999723
0.998533
0.986821
0.573574
0.999928
0.999929
0.999943
0.99996
0.999964
0.99994
0.999818
0.999329
0.997859
0.99277
0.957455
0.49991
0.999918
0.999905
0.999903
0.999899
0.999845
0.999591
0.998605
0.995431
0.986594
0.966453
0.861214
0.466699
0.999754
0.999797
0.999737
0.999556
0.999093
0.997678
0.993387
0.982344
0.956227
0.911916
0.734169
0.465888
0.999972
0.99998
0.999983
0.999985
0.999987
0.99999
0.999991
0.999991
0.999991
0.999991
0.999992
0.999992
0.999971
0.999972
0.999974
0.999976
0.999978
0.999981
0.999983
0.999985
0.999985
0.999984
0.999982
0.999986
0.999971
0.999978
0.999979
0.999981
0.999982
0.999983
0.999983
0.999982
0.99998
0.999978
0.999978
0.999981
0.999972
0.999984
0.999984
0.999984
0.999985
0.999985
0.999985
0.999983
0.99998
0.999979
0.999978
0.999979
0.999976
0.999984
0.999984
0.999981
0.999972
0.999981
0.999988
0.999987
0.999983
0.999981
0.99998
0.999978
0.999979
0.999984
0.999984
0.999972
0.999955
0.999977
0.999989
0.999989
0.999987
0.999984
0.999981
0.99997
0.999982
0.999984
0.999982
0.999964
0.999954
0.999976
0.999989
0.99999
0.99999
0.999988
0.999979
0.999951
0.999983
0.999984
0.999977
0.999958
0.999952
0.999974
0.999989
0.999992
0.999992
0.999991
0.999978
0.999937
0.999984
0.999984
0.999972
0.999949
0.999943
0.999967
0.999988
0.999993
0.999994
0.999992
0.99998
0.999943
0.999984
0.999984
0.999879
0.999478
0.999121
0.999362
0.99991
0.999994
0.999994
0.999994
0.999984
0.999959
0.998088
0.995474
0.991704
0.987646
0.985215
0.986549
0.992381
0.998133
0.999941
0.999995
0.999995
0.999975
0.948133
0.928069
0.924112
0.931922
0.932967
0.936299
0.946876
0.964906
0.986606
0.998344
0.997938
0.997901
0.999994
0.999994
0.999994
0.999994
0.999994
0.999994
0.999994
0.999994
0.999994
0.999994
0.999994
0.999994
0.999992
0.999994
0.999994
0.999994
0.999992
0.999993
0.999994
0.999994
0.999994
0.999994
0.999994
0.999971
0.999989
0.999991
0.999988
0.999979
0.99997
0.99997
0.999981
0.999994
0.999994
0.999994
0.999994
0.999869
0.999983
0.999981
0.99997
0.99995
0.999917
0.999842
0.999598
0.999063
0.998758
0.999588
0.999974
0.999533
0.999973
0.999962
0.999941
0.999897
0.999746
0.998935
0.99566
0.98897
0.984418
0.987836
0.998385
0.99872
0.99995
0.999923
0.999883
0.999768
0.998977
0.994346
0.981131
0.967528
0.958384
0.949654
0.961767
0.990303
0.999904
0.999853
0.999785
0.999443
0.996127
0.98149
0.963167
0.957603
0.952047
0.920146
0.850127
0.76123
0.99985
0.999737
0.999615
0.998534
0.988187
0.965666
0.965497
0.970554
0.965336
0.923116
0.804025
0.728531
0.999857
0.999669
0.999366
0.997476
0.972184
0.96584
0.98005
0.986006
0.979793
0.953014
0.860665
0.728876
0.999897
0.999723
0.999354
0.995325
0.970582
0.970342
0.988223
0.990926
0.985451
0.971901
0.923042
0.728548
0.999941
0.999846
0.999601
0.991066
0.970913
0.98122
0.99045
0.990947
0.986323
0.973948
0.946164
0.728904
0.99952
0.999837
0.999835
0.991779
0.975881
0.984676
0.987728
0.980266
0.963845
0.940304
0.911318
0.728752
0.999998
0.999998
0.999998
0.999998
0.999998
0.999998
0.999998
0.999998
0.999998
0.999998
0.999998
0.999997
0.999998
0.999997
0.999996
0.999997
0.999997
0.999997
0.999998
0.999998
0.999998
0.999997
0.999996
0.999995
0.999996
0.999995
0.999995
0.999996
0.999997
0.999998
0.999998
0.999998
0.999997
0.999996
0.999995
0.999993
0.999995
0.999995
0.999995
0.999996
0.999997
0.999998
0.999998
0.999998
0.999997
0.999996
0.999994
0.999992
0.999995
0.999995
0.999996
0.999996
0.999998
0.999998
0.999998
0.999998
0.999997
0.999996
0.999994
0.999991
0.999995
0.999996
0.999997
0.999998
0.999998
0.999998
0.999998
0.999998
0.999998
0.999996
0.999994
0.999991
0.999996
0.999997
0.999998
0.999998
0.999998
0.999998
0.999998
0.999976
0.999907
0.999945
0.999994
0.999991
0.999996
0.999998
0.999998
0.999998
0.999998
0.999984
0.999758
0.998887
0.997437
0.996705
0.998354
0.999916
0.999996
0.999998
0.999998
0.999993
0.999923
0.999456
0.99767
0.993976
0.989101
0.984044
0.983466
0.991682
0.999996
0.999982
0.999894
0.99959
0.998732
0.996341
0.99146
0.984372
0.977011
0.970181
0.96354
0.965358
0.999828
0.999401
0.997148
0.99312
0.988201
0.982574
0.975192
0.96643
0.959101
0.955071
0.952734
0.949754
0.974842
0.964733
0.954081
0.944997
0.941017
0.938204
0.933965
0.929596
0.92684
0.929187
0.938113
0.942981
0.999996
0.999996
0.999994
0.999993
0.999992
0.999992
0.999992
0.999992
0.999992
0.999992
0.999992
0.999884
0.999994
0.999991
0.999989
0.999987
0.999986
0.999987
0.999989
0.999989
0.999987
0.999991
0.999991
0.99976
0.999991
0.999987
0.999984
0.999981
0.999979
0.999976
0.999962
0.999905
0.999834
0.999949
0.999961
0.99939
0.999988
0.999983
0.999978
0.999976
0.999977
0.999952
0.999781
0.999311
0.999004
0.99973
0.999722
0.998863
0.999986
0.99998
0.999974
0.999972
0.999975
0.999916
0.999134
0.997458
0.997286
0.999331
0.999156
0.996912
0.999986
0.999977
0.999971
0.999971
0.999972
0.999886
0.998271
0.995163
0.995413
0.998489
0.998463
0.978198
0.999987
0.999979
0.999973
0.999972
0.999966
0.999854
0.998037
0.994238
0.993599
0.995579
0.997605
0.9201
0.999987
0.999983
0.999978
0.999974
0.999936
0.999742
0.998392
0.994282
0.992507
0.991981
0.995722
0.868
0.99929
0.999981
0.999982
0.999963
0.999693
0.998738
0.996966
0.993241
0.993506
0.99083
0.990209
0.833112
0.982557
0.998093
0.999957
0.999733
0.998033
0.994979
0.994043
0.993226
0.994828
0.989264
0.974858
0.763163
0.954136
0.975732
0.996953
0.996742
0.993937
0.993814
0.995405
0.995001
0.995188
0.984861
0.921058
0.761436
0.941683
0.947121
0.971323
0.988497
0.994559
0.995833
0.995813
0.995833
0.995084
0.98036
0.928846
0.784898
0.938467
0.957367
0.961549
0.974567
0.988829
0.995358
0.996635
0.996603
0.99651
0.995692
0.993915
0.990865
0.653434
0.592876
0.589652
0.62728
0.715375
0.816656
0.876889
0.904113
0.920405
0.927789
0.925482
0.916159
0.548243
0.547413
0.547989
0.547058
0.547294
0.546281
0.546798
0.54513
0.546813
0.544661
0.583336
0.642613
0.546992
0.548369
0.546905
0.547869
0.546828
0.547397
0.546437
0.562043
0.585288
0.608891
0.625435
0.639686
0.985739
0.977387
0.964371
0.943382
0.915205
0.882283
0.85742
0.855616
0.860447
0.870562
0.872971
0.543249
0.900892
0.88168
0.857422
0.830086
0.81277
0.813441
0.822457
0.839525
0.866141
0.893957
0.928321
0.867198
0.676408
0.696671
0.711178
0.734452
0.767967
0.805908
0.846625
0.883091
0.909987
0.929613
0.953874
0.954357
0.665077
0.699852
0.752243
0.789528
0.83246
0.875306
0.904814
0.924432
0.938898
0.952979
0.959658
0.959859
0.660352
0.795109
0.897985
0.960822
0.993334
0.999992
0.991725
0.986021
0.984825
0.984433
0.982477
0.981161
0.784477
0.688045
0.687951
0.704608
0.732758
0.750942
0.7815
0.81105
0.826615
0.842083
0.839754
0.842764
0.932845
0.873679
0.82943
0.711978
0.674306
0.669556
0.674306
0.670567
0.673841
0.67266
0.672534
0.669554
0.959453
0.954453
0.950525
0.921146
0.881228
0.831517
0.780506
0.754922
0.720887
0.725784
0.720835
0.666154
0.986718
0.993451
0.994938
0.993826
0.991022
0.985118
0.972734
0.948101
0.908824
0.856913
0.80386
0.625267
0.873766
0.90769
0.910823
0.903963
0.89149
0.873046
0.848056
0.815865
0.795143
0.794208
0.793232
0.768932
0.66392
0.640386
0.618449
0.608343
0.602989
0.605211
0.613749
0.626708
0.648504
0.684044
0.738984
0.796934
0.559886
0.474771
0.475075
0.49347
0.526715
0.57106
0.621923
0.671415
0.709503
0.737262
0.766084
0.808042
0.677642
0.729745
0.778397
0.81896
0.829272
0.821321
0.806801
0.797132
0.819145
0.901765
0.935441
0.952986
0.725325
0.702529
0.70085
0.704995
0.707259
0.692433
0.643822
0.577994
0.558082
0.584296
0.672579
0.804601
0.800242
0.783906
0.763469
0.74817
0.732654
0.714074
0.681491
0.603064
0.553607
0.553705
0.591114
0.723
0.85032
0.86706
0.865209
0.853143
0.832189
0.818678
0.809374
0.773915
0.670775
0.605394
0.611326
0.653606
0.982418
0.998546
0.999563
0.991542
0.971213
0.960988
0.945128
0.918791
0.88767
0.858694
0.838864
0.796622
0.927683
0.985904
0.986151
0.968826
0.914657
0.859275
0.833125
0.817561
0.808124
0.798592
0.790438
0.79052
0.880132
0.898337
0.889122
0.867285
0.821921
0.795307
0.795314
0.804417
0.818502
0.834865
0.853905
0.859939
0.66731
0.731358
0.783641
0.817762
0.850345
0.874206
0.88549
0.889127
0.895669
0.906524
0.916999
0.922148
0.810158
0.805725
0.813309
0.836382
0.850478
0.852584
0.857749
0.865123
0.873101
0.886481
0.906458
0.925159
0.790896
0.790814
0.793422
0.79846
0.798606
0.798286
0.800534
0.81082
0.827621
0.847241
0.867746
0.889475
0.859906
0.860298
0.856703
0.854119
0.849466
0.836616
0.828224
0.830422
0.834958
0.841776
0.850445
0.86522
0.924642
0.923247
0.919168
0.912878
0.904743
0.893535
0.881162
0.872146
0.866683
0.868317
0.872
0.876638
0.928152
0.926585
0.930916
0.955749
0.988779
0.9956
0.993951
0.99046
0.982755
0.967345
0.942985
0.892188
0.89709
0.89294
0.88258
0.880833
0.905403
0.924639
0.922528
0.912906
0.897058
0.874245
0.837763
0.760101
0.870491
0.863257
0.829029
0.768078
0.765382
0.763866
0.762613
0.745407
0.727462
0.707429
0.617919
0.548029
0.876971
0.877294
0.873626
0.847886
0.776884
0.748321
0.732959
0.720766
0.708549
0.693495
0.642679
0.548947
0.68146
0.668559
0.674554
0.702235
0.737023
0.764841
0.806106
0.877029
0.938606
0.938715
0.918382
0.918545
0.81008
0.814892
0.817591
0.822603
0.831808
0.840866
0.866183
0.901238
0.921252
0.910125
0.907468
0.896172
0.81129
0.818226
0.82035
0.822906
0.831359
0.845189
0.877248
0.910201
0.910345
0.926135
0.960827
0.922112
0.806492
0.810224
0.812779
0.816366
0.830395
0.860085
0.889806
0.912167
0.916795
0.949394
0.964061
0.94427
0.913884
0.882191
0.861232
0.689921
0.846784
0.95199
0.95197
0.952609
0.959655
0.959658
0.959981
0.959658
0.85703
0.841719
0.840313
0.663006
0.663094
0.929219
0.948808
0.948822
0.948837
0.958451
0.959771
0.959046
0.808068
0.844637
0.855787
0.705245
0.535121
0.81083
0.950395
0.951064
0.949712
0.95955
0.960293
0.95958
0.769712
0.861222
0.879233
0.784549
0.535016
0.515539
0.915952
0.957318
0.959297
0.960573
0.959879
0.960415
0.959267
0.959212
0.958585
0.887379
0.725137
0.724933
0.85037
0.918862
0.896684
0.882773
0.793464
0.514605
0.955263
0.951906
0.943905
0.884087
0.802135
0.828971
0.925827
0.959517
0.94656
0.924095
0.789071
0.370902
0.952317
0.939795
0.913129
0.841171
0.773681
0.817388
0.921708
0.959281
0.913139
0.923474
0.781328
0.284667
0.955348
0.925308
0.842494
0.70101
0.627332
0.871875
0.921715
0.896172
0.8879
0.924974
0.78412
0.200678
0.393356
0.452316
0.678405
0.819524
0.882884
0.89975
0.895945
0.847472
0.846191
0.873264
0.882686
0.883556
0.393037
0.655017
0.876908
0.918426
0.935638
0.930477
0.887968
0.783522
0.793781
0.904983
0.923179
0.918971
0.497694
0.837923
0.939461
0.930812
0.938933
0.922021
0.850692
0.753521
0.836529
0.945133
0.945096
0.93652
0.633251
0.952835
0.955307
0.94022
0.946721
0.920279
0.753807
0.717074
0.888325
0.945127
0.927272
0.923669
0.902664
0.909943
0.907421
0.897567
0.884798
0.881932
0.860875
0.79473
0.709302
0.581541
0.370892
0.140453
0.918119
0.917959
0.916377
0.910887
0.906497
0.899298
0.868181
0.808896
0.726866
0.550079
0.215286
0.112472
0.923067
0.916768
0.912018
0.91029
0.909902
0.891658
0.850954
0.799877
0.748745
0.66417
0.3247
0.081422
0.90535
0.891817
0.895473
0.907366
0.908266
0.877238
0.825637
0.778425
0.764565
0.751214
0.339581
0.0751477
0.486576
0.847154
0.916533
0.93169
0.939489
0.935387
0.925565
0.915079
0.924388
0.939715
0.941058
0.937048
0.489235
0.866873
0.942874
0.952506
0.9525
0.945197
0.936732
0.92667
0.93041
0.940923
0.941059
0.932063
0.320678
0.788196
0.934791
0.952608
0.953039
0.952718
0.94851
0.938561
0.938029
0.947371
0.948711
0.935825
0.186864
0.667797
0.922482
0.952298
0.958778
0.962867
0.959564
0.948134
0.945126
0.951859
0.953365
0.944137
0.936982
0.93131
0.928328
0.915668
0.905817
0.905511
0.90388
0.895968
0.890787
0.890357
0.887125
0.857177
0.932105
0.934797
0.939188
0.917099
0.893395
0.886299
0.885828
0.885762
0.889953
0.853528
0.715265
0.61774
0.932072
0.945146
0.953979
0.932196
0.875803
0.822642
0.810663
0.820866
0.801702
0.608703
0.466193
0.463505
0.934947
0.94605
0.953987
0.948538
0.876395
0.748576
0.679277
0.681977
0.604996
0.472749
0.462804
0.463217
0.864441
0.890891
0.875747
0.858583
0.873373
0.865196
0.822048
0.801056
0.799706
0.802608
0.777795
0.720119
0.761382
0.895587
0.904628
0.909185
0.943271
0.934622
0.869106
0.820533
0.809959
0.81108
0.811075
0.81108
0.640017
0.865886
0.893156
0.89472
0.967402
0.952045
0.880753
0.821054
0.803147
0.805044
0.809215
0.811
0.468373
0.676772
0.777696
0.859284
0.987275
0.96588
0.897035
0.829321
0.800616
0.799324
0.80433
0.805793
0.804482
0.805929
0.807861
0.81276
0.834031
0.87932
0.907684
0.897435
0.913332
0.958349
0.964157
0.964061
0.803326
0.802917
0.803494
0.811337
0.848105
0.900336
0.919852
0.897432
0.899833
0.955303
0.964061
0.964085
0.802496
0.800361
0.80025
0.816594
0.875847
0.923262
0.93961
0.90008
0.899704
0.949317
0.959648
0.958881
0.801138
0.79907
0.800199
0.845221
0.914728
0.932343
0.961052
0.932756
0.90255
0.944511
0.951699
0.954735
0.799843
0.798248
0.80633
0.878089
0.949073
0.932238
0.961361
0.963262
0.928638
0.941409
0.945927
0.958214
0.798912
0.797918
0.813668
0.906883
0.965827
0.937302
0.947789
0.963341
0.959456
0.945909
0.946845
0.962809
0.798307
0.797526
0.817634
0.925797
0.976687
0.958647
0.952939
0.959599
0.959607
0.953026
0.948096
0.968216
0.798019
0.797284
0.815648
0.938482
0.987587
0.986228
0.97495
0.963425
0.955298
0.944086
0.940548
0.976946
0.797636
0.797076
0.802568
0.950076
0.992521
0.995702
0.989751
0.968545
0.941924
0.940531
0.940513
0.985392
0.797104
0.796668
0.796583
0.960539
0.992938
0.995713
0.994679
0.989295
0.981092
0.970039
0.967412
0.985374
0.796668
0.796517
0.79663
0.962975
0.985163
0.991632
0.994692
0.992402
0.985175
0.980463
0.981632
0.981561
0.796599
0.79663
0.796337
0.954961
0.961586
0.976385
0.954659
0.942919
0.908771
0.867405
0.867395
0.868646
0.753871
0.871186
0.91973
0.886619
0.744021
0.500044
0.714978
0.941211
0.959995
0.959982
0.960612
0.959871
0.75371
0.848605
0.944704
0.946014
0.900458
0.513598
0.43501
0.821731
0.955122
0.960285
0.959982
0.960187
0.753776
0.79206
0.94293
0.980715
0.980216
0.805205
0.417448
0.435812
0.834577
0.95192
0.960255
0.958005
0.796919
0.792162
0.878735
0.980926
0.981014
0.961207
0.642742
0.40932
0.436409
0.835419
0.945555
0.93761
0.861104
0.798624
0.798233
0.948328
0.979313
0.972715
0.920509
0.567674
0.409174
0.461757
0.837107
0.881627
0.883743
0.860576
0.79834
0.889678
0.961131
0.967636
0.957496
0.870905
0.498941
0.414936
0.498303
0.766415
0.883744
0.882371
0.858548
0.89065
0.9468
0.961017
0.936203
0.890599
0.785996
0.439896
0.435659
0.57771
0.883743
0.88225
0.905947
0.933729
0.944847
0.923885
0.847731
0.847526
0.875086
0.725943
0.497713
0.563973
0.794865
0.732167
0.866886
0.933525
0.911927
0.860639
0.849363
0.885213
0.889602
0.889423
0.772326
0.703161
0.509661
0.341861
0.427894
0.533532
0.492627
0.496044
0.732185
0.877223
0.889423
0.889602
0.889428
0.864051
0.291729
0.170419
0.0977028
0.0587598
0.0649366
0.0990091
0.224207
0.356369
0.424938
0.460063
0.420697
0.452434
0.262137
0.165901
0.0787196
0.0505658
0.0505287
0.0505172
0.0504812
0.0504683
0.0504335
0.0504193
0.0503856
0.0503701
0.953481
0.884634
0.705951
0.503068
0.562598
0.830877
0.886941
0.806599
0.883381
0.930927
0.809925
0.151596
0.943333
0.81979
0.571454
0.378421
0.515279
0.70366
0.771974
0.792937
0.894525
0.930973
0.810311
0.144854
0.919012
0.749136
0.479831
0.377812
0.493531
0.675679
0.803674
0.884795
0.914868
0.931004
0.788865
0.103439
0.875794
0.693137
0.463849
0.40323
0.657436
0.895565
0.919268
0.922399
0.930855
0.933672
0.769162
0.066012
0.808792
0.666905
0.504898
0.588105
0.857604
0.946723
0.941874
0.937429
0.945342
0.94481
0.748388
0.0501529
0.723199
0.669245
0.641599
0.801687
0.929586
0.953002
0.951687
0.951832
0.954829
0.95334
0.693383
0.0502347
0.655871
0.688096
0.77887
0.911636
0.955159
0.955186
0.955609
0.955314
0.955421
0.954195
0.538312
0.050098
0.646927
0.726055
0.847128
0.936886
0.955186
0.95579
0.955314
0.955609
0.955385
0.946911
0.318558
0.0501988
0.734578
0.802998
0.889544
0.94662
0.95564
0.955314
0.955777
0.955428
0.955606
0.853614
0.150169
0.0500808
0.877046
0.91229
0.944374
0.946995
0.945074
0.955481
0.955328
0.955606
0.860599
0.391027
0.0550254
0.0501744
0.566471
0.648824
0.589275
0.466415
0.36155
0.387742
0.383855
0.252832
0.065986
0.0500861
0.0501866
0.0501252
0.0503376
0.0503208
0.0502574
0.0502712
0.0502082
0.0502293
0.0501674
0.0501904
0.0501238
0.0501697
0.0501326
0.0501698
0.677706
0.970655
0.964937
0.956288
0.960367
0.935941
0.695244
0.669776
0.881425
0.945156
0.878658
0.878909
0.565038
0.970657
0.968807
0.969019
0.974139
0.959197
0.719185
0.571883
0.867975
0.942323
0.877879
0.878274
0.411009
0.970658
0.971556
0.97748
0.983317
0.978715
0.78455
0.551887
0.853192
0.96896
0.918073
0.877593
0.317468
0.967201
0.974858
0.981967
0.985713
0.985238
0.886753
0.55218
0.782249
0.975237
0.96751
0.910156
0.282258
0.95324
0.978535
0.984379
0.985749
0.985713
0.964507
0.551887
0.668235
0.975496
0.97546
0.96337
0.268984
0.923535
0.981348
0.985531
0.985713
0.985767
0.981556
0.684544
0.623642
0.96724
0.975496
0.97546
0.251014
0.859137
0.982032
0.985713
0.9858
0.985713
0.983624
0.877176
0.62266
0.943062
0.97546
0.974764
0.250886
0.729552
0.980081
0.98574
0.985713
0.985827
0.984645
0.916282
0.645578
0.89741
0.9724
0.96855
0.2509
0.521719
0.96997
0.985713
0.985827
0.985713
0.985313
0.944257
0.767798
0.854421
0.955548
0.954593
0.250922
0.310709
0.829855
0.964096
0.98339
0.985208
0.980968
0.961205
0.87765
0.842383
0.926112
0.93329
0.250943
0.250965
0.28423
0.701046
0.869734
0.907643
0.938038
0.952445
0.925114
0.841729
0.897758
0.914057
0.250965
0.250986
0.250978
0.250952
0.252565
0.569849
0.846034
0.929639
0.93023
0.901909
0.897244
0.9079
0.878658
0.878032
0.886008
0.899875
0.901539
0.863898
0.789895
0.731098
0.776247
0.753042
0.42715
0.0751826
0.87772
0.878658
0.888103
0.894056
0.892654
0.848985
0.738209
0.690316
0.825752
0.744379
0.481861
0.115193
0.878658
0.877943
0.887542
0.890759
0.880641
0.814047
0.668595
0.685614
0.827517
0.759619
0.541695
0.15038
0.887455
0.880783
0.87936
0.87602
0.854266
0.7448
0.655414
0.735815
0.828586
0.769138
0.549028
0.181851
0.924176
0.887179
0.862701
0.851216
0.820011
0.684945
0.655007
0.820578
0.827517
0.770125
0.544927
0.202388
0.940787
0.883279
0.847891
0.839476
0.816865
0.701386
0.669623
0.827517
0.827839
0.735107
0.543721
0.208887
0.93547
0.865329
0.847424
0.853301
0.851962
0.796449
0.777869
0.822781
0.820505
0.699194
0.566174
0.204027
0.921138
0.864657
0.862909
0.904724
0.930491
0.929222
0.911563
0.815457
0.743177
0.70639
0.573846
0.146539
0.906445
0.874041
0.911609
0.948217
0.948525
0.941761
0.8925
0.738214
0.683996
0.705898
0.57376
0.0934507
0.905286
0.894081
0.908348
0.872359
0.633908
0.330764
0.286839
0.223708
0.528645
0.687245
0.384768
0.0363902
0.90665
0.887523
0.751148
0.175814
0.0363833
0.0121331
0.0137955
0.0116525
0.100115
0.126798
0.0658559
0.0135875
0.902674
0.822901
0.40968
0.0107708
0.0107709
0.010771
0.010771
0.0107712
0.0107712
0.0107714
0.0107714
0.0107715
0.102486
0.438274
0.894366
0.954292
0.965576
0.971485
0.96766
0.956084
0.951635
0.954579
0.954592
0.946899
0.0696405
0.177882
0.772354
0.957028
0.971576
0.976563
0.972844
0.962296
0.957563
0.957267
0.954579
0.948042
0.0568733
0.0450813
0.437332
0.957172
0.975575
0.977928
0.97636
0.968442
0.964026
0.96296
0.963271
0.96454
0.0462742
0.0180324
0.154155
0.939037
0.977579
0.978003
0.977999
0.973518
0.969932
0.969502
0.972534
0.974314
0.0287976
0.0166062
0.0961099
0.861122
0.977994
0.978013
0.978063
0.975928
0.973563
0.973727
0.976834
0.978401
0.0138381
0.0166258
0.121731
0.809327
0.978017
0.978088
0.978096
0.978146
0.976972
0.977014
0.978968
0.980011
0.0110299
0.0232294
0.261707
0.807703
0.977329
0.978099
0.978148
0.978179
0.97822
0.97825
0.979408
0.980077
0.0109704
0.0392066
0.447913
0.855075
0.974719
0.978115
0.978127
0.978175
0.97741
0.975699
0.977659
0.98005
0.0110205
0.0540408
0.545378
0.903292
0.976925
0.978065
0.978125
0.978132
0.978097
0.974449
0.974423
0.976508
0.0109868
0.0206317
0.257438
0.750324
0.933473
0.968137
0.913098
0.886425
0.930598
0.966303
0.977875
0.980075
0.0110036
0.0110035
0.0126949
0.0436022
0.11241
0.150759
0.0523288
0.0485754
0.188488
0.480259
0.7115
0.826882
0.011009
0.0110204
0.0110205
0.0110367
0.0110319
0.0110512
0.0110417
0.011063
0.0110534
0.0155026
0.0370108
0.0652279
0.936142
0.935573
0.947758
0.948691
0.894932
0.744743
0.618061
0.618173
0.640602
0.731602
0.85417
0.912045
0.938057
0.920542
0.930131
0.943542
0.920278
0.803856
0.648536
0.633427
0.782362
0.895
0.926655
0.945227
0.956385
0.910769
0.906752
0.930554
0.928432
0.892565
0.756998
0.707592
0.849519
0.875679
0.925016
0.9452
0.960626
0.8995
0.87747
0.911359
0.927127
0.920473
0.86008
0.79856
0.841513
0.88107
0.92714
0.945227
0.964398
0.898959
0.859318
0.874151
0.909431
0.9095
0.862783
0.828913
0.847131
0.898354
0.928157
0.9452
0.973319
0.918023
0.859491
0.859318
0.869924
0.879525
0.871085
0.887832
0.902996
0.899773
0.920785
0.942054
0.98005
0.96769
0.902568
0.871349
0.87784
0.892064
0.923799
0.96015
0.970625
0.925499
0.915534
0.901948
0.980147
0.98009
0.974256
0.954643
0.948937
0.956477
0.974182
0.980126
0.980211
0.972558
0.943704
0.862171
0.979825
0.980182
0.980128
0.980195
0.980143
0.980152
0.980133
0.980229
0.980149
0.98019
0.958052
0.807279
0.980154
0.980115
0.980193
0.980151
0.980205
0.980151
0.980237
0.980132
0.980198
0.980137
0.946461
0.712041
0.881319
0.89894
0.903623
0.925521
0.965162
0.980206
0.980157
0.980198
0.980118
0.956245
0.884434
0.535064
0.0832805
0.0888803
0.0905858
0.125407
0.259872
0.476053
0.68444
0.814657
0.835219
0.771061
0.462813
0.455884
0.46352
0.463288
0.536455
0.858843
0.99694
0.975941
0.911673
0.837235
0.799376
0.795089
0.801998
0.803805
0.489845
0.46352
0.537324
0.940446
0.997941
0.98495
0.928487
0.848583
0.801339
0.792508
0.800193
0.802261
0.727238
0.703619
0.801437
0.995646
0.99794
0.992117
0.947963
0.86269
0.803965
0.789893
0.799244
0.801606
0.942439
0.958642
0.987601
0.997723
0.997883
0.995851
0.964655
0.876178
0.807202
0.788413
0.798667
0.800789
0.993445
0.995852
0.997239
0.997749
0.997406
0.997399
0.979233
0.892426
0.811044
0.787509
0.798574
0.800423
0.995264
0.995916
0.997466
0.99775
0.997089
0.997363
0.988721
0.909337
0.814988
0.786479
0.798441
0.800037
0.989232
0.993451
0.997424
0.997441
0.997087
0.997097
0.994999
0.926731
0.819512
0.786419
0.798873
0.799767
0.973927
0.987096
0.99598
0.997333
0.997142
0.997189
0.997451
0.945781
0.824795
0.786456
0.79925
0.799592
0.968957
0.979531
0.991926
0.997286
0.99851
0.998203
0.998665
0.970665
0.830401
0.787817
0.799732
0.799285
0.967564
0.978046
0.990599
0.997278
0.999118
0.998889
0.998888
0.991927
0.834271
0.789767
0.799905
0.799078
0.959035
0.97721
0.991287
0.998286
0.999125
0.999124
0.991351
0.960735
0.838072
0.793756
0.800033
0.799244
0.935759
0.91832
0.882216
0.828256
0.769773
0.769823
0.852174
0.831646
0.831777
0.797248
0.800031
0.799892
0.798519
0.799842
0.800036
0.80003
0.800033
0.800012
0.800003
0.800001
0.800001
0.8
0.800001
0.8
0.800001
0.8
0.800001
0.8
0.8
0.8
0.8
0.8
0.796456
0.79663
0.799259
0.800034
0.80003
0.800008
0.800007
0.800001
0.800001
0.799999
0.800001
0.8
0.800001
0.8
0.800001
0.8
0.8
0.8
0.8
0.8
0.796592
0.796307
0.79663
0.797098
0.799989
0.799975
0.799971
0.799971
0.799969
0.799966
0.799966
0.79997
0.799973
0.799973
0.799973
0.799979
0.799985
0.799989
0.799993
0.799996
0.80003
0.800034
0.80003
0.800034
0.800005
0.799974
0.799972
0.799972
0.799972
0.799972
0.799972
0.799972
0.799972
0.799972
0.799977
0.799981
0.799985
0.799989
0.799992
0.799996
0.800034
0.800031
0.800036
0.80003
0.800035
0.80003
0.800022
0.8
0.800001
0.800001
0.800001
0.8
0.800001
0.8
0.800001
0.8
0.8
0.8
0.8
0.8
0.800031
0.800035
0.80003
0.800035
0.80003
0.800032
0.800005
0.8
0.800001
0.8
0.800001
0.8
0.800001
0.8
0.800001
0.8
0.8
0.8
0.8
0.8
0.97126
0.978632
0.97898
0.978632
0.978768
0.978009
0.964829
0.92074
0.840378
0.790415
0.805726
0.866503
0.920202
0.920488
0.907961
0.84867
0.743175
0.645764
0.58744
0.567274
0.901462
0.946391
0.973205
0.975648
0.971879
0.957301
0.921056
0.850691
0.748349
0.66177
0.655616
0.70733
0.80434
0.821315
0.822064
0.827064
0.82696
0.824043
0.799571
0.751878
0.908833
0.911715
0.910461
0.904324
0.890477
0.848859
0.769349
0.672124
0.608212
0.57469
0.546544
0.511841
0.511284
0.521552
0.590398
0.692942
0.751651
0.78517
0.835209
0.886198
0.884851
0.818768
0.695984
0.614067
0.563971
0.497551
0.481454
0.508751
0.555656
0.564058
0.545595
0.512131
0.522663
0.589116
0.654919
0.700232
0.768815
0.85864
0.911386
0.912058
0.700539
0.448519
0.27011
0.322022
0.313652
0.31358