/*--------------------------------*- C++ -*----------------------------------*\
| =========                 |                                                 |
| \\      /  F ield         | OpenFOAM: The Open Source CFD Toolbox           |
|  \\    /   O peration     | Version:  2212                                  |
|   \\  /    A nd           | Website:  www.openfoam.com                      |
|    \\/     M anipulation  |                                                 |
\*---------------------------------------------------------------------------*/
FoamFile
{
    version     2.0;
    format      ascii;
    arch        "LSB;label=32;scalar=64";
    class       volScalarField;
    location    "1.5";
    object      p;
}
// * * * * * * * * * * * * * * * * * * * * * * * * * * * * * * * * * * * * * //

dimensions      [1 -1 -2 0 0 0 0];

internalField   nonuniform List<scalar> 
3312
(
15958.1
15949.6
15957.4
15950.7
15971.6
15979.3
15983.5
15922.2
15799.7
15666.8
15585.4
15569.6
15979.2
15962.8
15972.2
15968.5
16018.4
15995.8
16019.7
15995.7
15908.4
15826.9
15746.8
15726.7
15960.1
15930.2
15933.6
15920.2
15955.3
15973.8
15935.7
15843.3
15739.2
15702
15649.8
15575.3
15961.4
15918.9
15908.2
15889.4
15919.3
15927.6
15867.1
15789.3
15688.2
15569.8
15498.3
15531.8
15954.3
15895.4
15878.8
15838.2
15849.4
15815.3
15801.8
15744.5
15656.7
15600.5
15421.4
15387.4
15966.7
15880.8
15848.4
15741.9
15787
15896
15996.8
16000.5
15998.7
15961.1
15941.1
15908.1
15986.3
15865.8
15831.8
15736.8
15906.1
16038.7
16142.5
16164.3
16145.5
16126.8
16153.4
16147.5
16058.1
15923.3
15920.1
15839.7
16063.3
16193.2
16292.9
16294.3
16290.8
16257.9
16273.7
16296.3
16182.3
16067.1
16132.7
16161.6
16340.6
16408
16468.2
16441.3
16411.4
16380.4
16389.4
16404.4
16324
16230.1
16316.4
16369.1
16515.8
16537
16565.7
16522
16482.8
16444.7
16438.4
16451.6
16422.7
16391.9
16530.1
16616.2
16731.6
16705.4
16692
16615.7
16547.9
16490.6
16461
16476.8
16518
16463.1
16646.3
16715.3
16821.5
16734.8
16707.2
16626.6
16561.2
16489.9
16454.6
16446.1
15611.7
15719.5
15834.5
15933.2
15963.8
15962
15925.6
15874.8
15905
15965.2
15046.5
16542.9
15718.2
15778.9
15859.5
15928.1
15942.9
15909.8
15798.4
15660.2
15320.4
14852
13241
16427.2
15558.2
15608.8
15739.5
15863.4
15935.4
15891.9
15868.6
15015.8
13261.8
17803.9
18275.8
20786.9
15501.9
15556.3
15723.4
15993.5
16117.7
15935.6
15871.5
15720.4
16318.8
15448
17613
22437.8
15078.7
15145.9
15793.6
16108.3
16252.5
16033.9
15513.8
14895.8
14985.8
16024.4
14613.8
22428.9
15800
15490.6
15446.8
15942.9
16575.6
16293.3
15825.8
13780.4
15906.9
13095.1
24130.8
28549.5
16180.9
16222.2
16443.9
16835.4
17638.8
17373.5
17000.6
16889.4
14528.2
28231.6
30974.9
33746.8
16322.9
16335.4
16391.1
16531.1
17064.5
17894.7
17928.7
19040
18158.5
19742.4
42152.6
35496.3
16447.4
16486.8
16567.8
16679.3
17037.4
17444.1
18126.4
18484.5
21521
17994.4
34802.2
45971.2
16508.2
16587.7
16705
16853.3
17149.7
17555
18063
19026.2
19883.9
22240.8
28555.6
75555.3
16544.7
16656.1
16796.9
16980.7
17266.4
17606.6
18206.4
18873.7
20366.9
22844.6
18920.4
63416.2
16533.6
16689.1
16872
17107.5
17399.5
17769.6
18280.7
19070.2
19944.9
22591.6
20766.4
36919.9
7554.52
7549.58
7551.6
7549.79
7559.01
7561.37
7574.12
7574.16
7598.24
7638.07
7680.39
7589.81
7578.73
7564.33
7566.13
7560.67
7570.7
7571.17
7585.01
7569.97
7599.06
7598.91
7682.12
7740.51
7587.11
7566.59
7570.07
7568.31
7585.97
7598.9
7620.7
7625.86
7633.86
7656.82
7603.15
7512.08
7602.2
7568.14
7571.61
7566.85
7584.83
7606.86
7641.74
7666.69
7682.99
7678.7
7622.64
7562.08
7611.84
7560.39
7569.3
7565.11
7579.7
7599.7
7647.7
7678.51
7726.1
7708.68
7672.87
7616.1
7626.85
7563.57
7569.37
7544.91
7544.75
7570.34
7634.17
7694.36
7762.11
7784.96
7774.62
7729.29
7676.03
7613.86
7605.67
7567.34
7543.52
7582.69
7671.24
7775.71
7843.12
7894.34
7872.93
7821.86
7747.96
7705.16
7691.68
7657.57
7637.97
7680.77
7772.47
7891.86
7966.9
8013.82
7988.52
7924.08
7817.17
7789.57
7784.94
7764.5
7765.9
7821.03
7913.68
8030.86
8110.74
8150.37
8117.83
8040.81
7870.69
7881.2
7899.24
7895.7
7898.57
7967.44
8033.64
8136.83
8217.74
8247.34
8217.56
8125
7921.38
7947.72
7967.94
7992.5
8049.6
8125.72
8137.91
8239.52
8324.01
8334.01
8297.25
8187.99
7564.3
8131.74
8128.07
8130.46
8124.19
8205.28
8194.08
8218.66
8323.58
8334.24
8312.84
8194.54
7409.8
7210.67
7127.68
7139.43
7221.33
7362.04
7538.47
7746.65
7956.7
8060.71
8165.37
8089.53
7644.01
7559.06
7489.59
7504.54
7546.11
7619.53
7714.51
7826.03
7953.64
7996.66
8067.69
7990.38
7383.51
7319.48
7325.03
7396.86
7474.25
7549.88
7625.07
7702.19
7818
7851.73
7912.31
7804.17
7483.37
7448.98
7465.34
7526.82
7578.08
7629.01
7678.59
7717.01
7794.19
7732.05
7805.64
7565.69
7528.81
7486.85
7497.98
7553.77
7597.53
7654.94
7711.52
7753.97
7819.82
7730.97
7675.89
7149.85
7663.42
7622.26
7616.73
7644.83
7678.51
7736.05
7785.68
7842.65
7895.88
7855
7865.85
6415.99
7730.95
7669.24
7645.66
7669.61
7712.04
7781.01
7851.53
7923.3
7998.63
7976.29
8086.7
5687.4
7818.14
7727.77
7700.21
7724.73
7779.82
7859.38
7943.84
8044.51
8138.45
8186.35
8396.55
5259.89
7917.08
7803.28
7760.39
7776.99
7836.23
7920.99
8012.44
8133.02
8250.83
8392.7
8831.27
7149.55
8003.65
7874.2
7819.28
7825.04
7878.97
7963.94
8064.54
8221.38
8418.86
8793.58
10019.3
13380.1
8055.4
7930
7874.74
7863.88
7905.71
7983.31
8091.21
8262.57
8660.51
9422.74
12222.4
23076.7
8062.7
7920.91
7863.28
7849.04
7882.05
7944.43
8062.01
8326.16
9024.44
11015.6
15617.7
28066.9
2554.62
2546.52
2543.81
2539.5
2546.69
2551.6
2567.28
2574.39
2580.14
2580.04
2576.89
2570.05
2574.13
2551.88
2552.9
2543.27
2553.67
2562
2592.96
2610.73
2623.71
2626.54
2625.7
2618.66
2571.53
2540.48
2537.05
2522.76
2527.11
2533.77
2575.59
2609.84
2639.92
2652.16
2659.63
2651.68
2589.63
2549.77
2537.8
2514.84
2504.76
2512.97
2571.12
2629.6
2677.48
2703.98
2724.48
2721.54
2602.27
2558
2539.4
2496
2468.06
2479.13
2562.39
2640.76
2703.86
2744.07
2781.89
2803.06
2650.51
2599.76
2567.87
2512.12
2468.2
2494.23
2590.31
2674.12
2735.53
2783.04
2822.26
2872.1
2688.84
2633.71
2594.75
2542.05
2503.17
2560.04
2643.32
2722.26
2778.41
2818.03
2894.85
2950.07
2786.45
2724.05
2676.55
2624.18
2595.12
2651.46
2715.72
2780.05
2835.35
2881.75
2986.97
3036.98
2851.49
2809.62
2752.39
2708.95
2685.48
2738.45
2803.25
2870.73
2923.44
2974.59
3084.25
3169.8
2973.83
2930.88
2891.82
2843.86
2827.64
2857.84
2913.9
2938.88
3008.9
3043.79
3170.73
3306.29
3016.41
3121.78
3169.03
3157.42
3080
2881.81
2988.03
3077.76
3145.64
3124.39
3248.2
3429.77
3154.18
3438.33
3831.95
4106.83
3914.77
3414.94
3221.03
3092.99
3274.21
3093.15
3151.65
3471.17
2560.05
2544.79
2529.19
2511.59
2496.64
2481.05
2477.25
2480.02
2482.79
2467.71
2468.75
2461.08
2606.66
2587.31
2558.98
2534.28
2506.97
2481.53
2480.83
2498
2509.52
2500.94
2497.44
2485.22
2636.11
2605.8
2573.48
2543.61
2511.06
2483.1
2489.48
2520.96
2531.56
2505.43
2488.9
2490.61
2720.75
2703.51
2660.33
2622.61
2577.59
2536.71
2551.52
2597.64
2594.59
2541.07
2503.2
2514.89
2800.09
2795.31
2760.3
2721.65
2673.74
2663.82
2724.94
2801.04
2708.62
2470.99
2409.5
2457.66
2894.86
2875.84
2848.91
2786.82
2712.49
2664.06
2635.88
2586.03
2762.46
2620.11
2562.27
2471.37
2982.9
2972.48
2951.54
2895.79
2753.39
2527.41
2317.96
2746.72
3244.01
3336.46
3008.52
2945.6
3088.29
3083.88
3084.68
2986.2
2598.52
1733.08
1957.48
2885.91
3659.77
3930.16
3425.57
3797.8
3235.55
3237.54
3246.65
3167.97
2570.66
1288.61
2303.44
2971.16
4120.3
4691.32
5900.11
5395.34
3372.84
3399.56
3402.1
3296.38
2767.09
1886.22
2564.4
3374.93
4836.08
6301.53
9107.78
10035.2
3492.97
3541.74
3524.98
3521.59
3355.74
2838.69
2948.33
3704.63
5273.62
7059.23
10463
11992.1
3563.15
3653.95
3641.75
3693.25
3674.44
3533.39
3460.34
4237.38
5897.72
8422.72
13014.5
17081
4402.77
4406.1
4409.02
4414.69
4420.32
4428.18
4432.89
4434.05
4432.54
4448.91
4467.31
4451.46
4440.56
4447.83
4450.58
4458.8
4469.31
4482.13
4495.32
4503.88
4501.46
4519.13
4568.27
4555.71
4439.38
4445.73
4450.02
4463.09
4480.93
4506.44
4531.81
4554.34
4573.22
4563.65
4547.8
4511.5
4461.14
4455.94
4453.22
4461.12
4479.18
4501.64
4533.75
4556.46
4570.24
4561.47
4539.87
4506.93
4460.92
4439.98
4430.71
4431.53
4444.41
4463.55
4497.42
4529.13
4556.78
4566.07
4548.36
4496.66
4463.05
4414.65
4394.18
4386.47
4394.23
4412.71
4459.37
4496.57
4551.76
4572.77
4577.96
4535.49
4458.46
4383.82
4347.87
4344.37
4352.92
4374.98
4429.65
4507.21
4582.95
4627.29
4642.4
4607.14
4465.07
4362.02
4321.9
4334.64
4359.86
4400.39
4461.98
4543.88
4625.32
4694.47
4754.39
4747.18
4526.75
4413.64
4374.89
4392.81
4416.74
4464.08
4543.41
4641.88
4722.04
4707.04
4709.85
4806.24
4616.51
4533.13
4510.81
4519.56
4559.8
4632.61
4741.44
4912.6
5076.25
5050.23
4912.11
4656.63
4696
4655.82
4683.03
4719.68
4736.73
4886.18
5150.46
5404.98
5538.37
5503.6
5393.95
5197.69
4811.51
4790.77
4978.29
5261.16
5469.03
5591.75
5730.56
5988.02
6008.93
5935.17
5811.81
5584.5
4398.05
4387.33
4426.78
4516.49
4648.08
4782.32
4865.59
4848.3
4698.59
4529.71
4600.33
4677.55
4545.28
4529.29
4529.9
4573.36
4616.58
4663.41
4620.91
4557.18
4296.47
4092.33
4261.52
4398.6
4467.38
4426.63
4417.97
4455.23
4474.79
4471.79
4401.13
4310.05
3944.64
3740.91
3982.29
4115.73
4443.15
4381.73
4356.8
4390.51
4410.25
4404.56
4337.25
4288.94
3837.29
3810.47
3940.45
4154.42
4416.36
4317.83
4271.73
4317.62
4388
4413.72
4353.82
4281.44
3924.64
4190.38
4032.33
4202.73
4446.58
4334.46
4275.55
4311.69
4452
4487.37
4460.65
4387.11
4189.63
4301.74
3936.98
4218.6
4546.54
4448.92
4386.22
4432.68
4587
4631.92
4595.54
4485.35
4370.78
4161.31
3958.44
4986.42
4686.43
4626.63
4598.72
4648.88
4738.66
4783.82
4750.92
4549.99
4420.84
3908.79
3892.81
5927.42
4816.97
4770.97
4778.07
4786.29
4877.76
4932.02
4963.68
4768
4585.93
3654.44
3715.56
7432.15
4826.38
4832.44
4900.61
4900.25
4974.27
5094.28
5119.82
4921.99
4980.19
3904.72
4496.63
10614.3
4943.35
4861.42
5013.48
5073.41
5069.76
5076.63
5065.85
5000.53
5181.59
5084.05
7519.91
13578.7
5341.32
5087.58
4583.98
5071.78
5156.66
5236.54
5063.45
5021.13
5481.52
7860.22
18419.1
27044
16153.2
16553.6
16831.7
17004.5
17053.6
16895.5
16832.5
16731.2
16624.3
16516.5
16455.4
16444.9
18894
17477.8
16222.7
15504.4
14866.7
15183.4
15790
15985
16185.7
16363.8
16295.5
16429.7
20843.6
20594.5
20104.4
20638
20649.9
19849.8
19280.6
19077.7
18281.4
18036.4
17350.5
16521.1
13640.2
14447.6
14271.7
12792.2
12390.6
12346.9
12512.1
12781.8
13137.7
13688.4
14324.8
15470.5
16527.3
16721.7
16952.4
17183.4
17446.5
17672.7
18121.2
18673.7
19461.9
19987.9
20740.8
10919.7
16581.9
16787.7
16920
17007.5
16949.5
17118.8
17162.6
17328.2
17812
18171.5
19088.3
17720.4
16163.7
16534.9
16847.4
16808.9
16634.5
16587.7
16545.3
16248.7
16894.8
16431.4
16837
16019.9
17319.1
16885
17239
16954
15950.9
15687.6
15652.8
15015.8
14743.9
15168.2
15131.6
15077.2
9893.04
7342.05
7061.44
8204.95
8462.63
8367.22
8227.99
8290.18
8462.74
8427.27
8338.5
8130.39
7623.41
10289.2
12881.8
13199.9
8599.19
8680.59
10510.1
8834.36
8511.24
8205.99
7664.98
7390.8
12978.6
11538.9
9784.16
9496.64
8920.95
9205.9
10271.3
9983.32
10306.8
10556
8505.77
8074.57
14131
14244.4
13738.5
14007.3
12894.1
12727.1
13202.1
13082.1
13329.7
13461.1
10402.6
4810.68
7969.61
7898.78
7870.72
7846.61
7856.82
7888.71
7971.32
8263.17
8913.97
10814.2
16446.4
21559.2
6565.44
6870.42
7179.44
7293.61
7364.48
7295.87
7250.57
7544
8115.96
9899.44
12603.8
13798.5
7663.2
7356.13
7124.49
6715.15
6599.33
6731.53
6629.92
6348.34
6106.19
6911.31
7987.42
9088.9
3311.08
3441.34
4182.92
4118.43
3807.09
3426.47
2018.01
2740.49
1485.9
3285.72
2816.21
3005.93
7812.43
5739.51
5962.17
5766.31
4772.43
3798.7
3241.5
2739.55
2820.6
2401.74
2128.96
3576.81
4676.37
4682.18
4040.29
4310.48
4917.98
3640.93
2927.75
3469.3
4054.36
5235.38
5957.9
5215.72
4794.53
4795
5145.81
4611.35
3823.01
3856.17
3898.82
3086.26
4275.24
4566.51
6335.36
5899.29
2474.51
3683.7
4350
4741.28
4840.45
4948.4
4947.55
4713.3
4304.76
12144.4
20006.4
13275.1
3670.32
3779.01
3788.11
4110.51
4191.86
3620.58
3658.99
4144.25
5899.05
8268.22
11711.4
14769.4
4256.19
3872.54
3864.08
4291.57
4012.49
4968.03
4043.37
4808.57
5134.76
6704.79
7985.69
8934.42
5291.43
4215.11
3627.06
2979.3
1935.13
3224.71
3888.59
4747.62
4910.83
5786.27
6400.69
6725.3
7434.43
6771.06
6146.62
5717.75
5458.42
5302.58
4539.22
4402.74
4337.26
4367.15
4017.47
4510.76
6174.63
6663.55
7503.5
6841.4
5691.54
5920.58
6537.34
6630.61
6511.63
6439.06
6319.84
6167.93
4462.71
4735.74
4686.01
5290.75
5659.23
5957.46
6123.2
6498.5
6924.83
7032.65
6868.49
6751.42
4938.26
5063.98
5169.94
5382.23
5009.95
5396
6459.75
6583.1
6817.92
6881.78
7113.38
7268.85
4241.47
4136.83
4078.93
4270.09
4493
5160.72
5915.42
6677.15
7617.75
8138.56
8083.24
8270.52
5766.01
5706.17
4744.22
4879.12
5324.21
5280.69
4918.18
4868.7
5999.61
11225.9
24491.8
24774
6489.87
5757.43
5352.56
2811.1
3499.49
5169.93
6437.46
7142.35
8332.18
12514.9
20267.7
23480.8
7270.86
7373.55
6611.74
7540.37
5240.31
4434.03
4940.2
5525.22
6107.05
9402.03
20679.9
24332.2
8045.62
7729.05
8219.78
9168.98
10278.3
9937.33
9916.14
8967.51
9493.11
10316
12488
12481.4
14724.8
15488.2
15782.6
16069.3
15677.7
15250.5
15026.9
14894.2
15001.1
15192.1
15117.9
15139
13970.8
14357.1
14483.7
14305.5
14067.8
13883.7
13954.4
14137.3
14444.7
14703.2
14705.8
14998.5
13918.5
14500
14756.9
14833.2
14598.4
14402.4
14387.2
14427.8
14665.6
14735.1
14721.1
14715.4
13590.9
14049
14162.8
14181.6
13897.5
13806.1
13902
14044.5
14312.2
14512.9
14513.9
14525.7
16003.7
16123.6
16805.3
16725.3
15962.1
15554
15229.2
14842
14454.2
14475.9
14385
14551
16046.6
16129.3
16603.5
16374.7
15705.5
15481.8
15322.1
14847.6
14543.7
14854
14802.6
14911.9
15827.9
16072.2
16436.9
16302
16070.5
15383.2
15279.7
14762
14577.5
14744.8
14778.7
15078.9
15727.5
16001.8
16372.2
16244.5
16164.8
15727.3
15320.2
14951.2
14791.5
14882
14978.5
15219
14676.5
14822.1
13964.2
13632
12914.8
13287.8
13650.7
13897
13827.5
14582.5
12837.3
8049.73
14468.8
14317.7
13809.3
13700.5
12872.4
13218.7
13512.1
13611.8
13528.3
13945.8
12412.7
7870.9
14817.7
14863.4
14154.7
14286.8
13505.2
13682.8
13759.7
13769.7
13640.9
13787.5
13150.3
8374.38
14969.3
14781.9
14302.1
14080.9
13361.2
13631.4
13629.9
13639.2
13608.1
13749.4
13009.6
9829.49
2790.75
2314.47
2170.01
2263.86
2238.85
2402.56
1892.03
2896.28
661.599
1450.91
551.473
562.839
3266.34
2808.69
2452.68
2480.09
2356.43
2377.26
1683.01
2850.86
1461.72
2467.4
1296.98
1345.8
1990.48
2209.37
2193.41
2165.12
2027.35
2099.82
1353.4
2767.1
803.081
1916.34
688.813
521.991
1691.6
2192.9
2140.27
2176.27
2042.89
2079.53
1314.59
2762.6
1365.75
2136.54
577.447
201.421
1853.67
3241.15
4405.28
5117.66
5648.98
6219.08
6175.52
5821.28
5868.46
8802.38
14700.7
16581.8
2024.55
2984.95
3866.75
4524.24
5281.14
5538.87
6012.24
6816.08
5765.92
7681.03
10292.6
8839.28
1669.18
2665.75
4142.22
4857.92
5317.25
6208.18
6374.13
6321.52
6004.22
6119.93
7629.93
8582.75
1555.87
2578.61
3677.96
4460.12
5572.31
6018.12
6436.78
6635.84
5969.64
6209.64
6720.28
7085.97
11328
7060.85
6156.66
5867.57
5336.75
5040.3
4623.18
4305
4113.59
4142.13
3940.34
4006.31
7015.91
6524.78
6048.06
5718.8
5453.05
5270.62
4948.2
4743.25
4534.11
4462.17
4289.31
4342.82
7601.88
6372.7
5993.87
5710.41
5437.94
5263.53
5028.06
4821.41
4586.56
4480.42
4247.47
4195.6
6379.24
6041.6
5947.76
5630.69
5445.68
5322.48
5147.01
4959.95
4753.48
4618.19
4409.46
4365.11
4038.92
4028.71
4173.91
4398.91
4478.76
5062.25
6005.44
6778.1
7234.5
7501.71
8057.96
8121.33
4259.98
4247.04
4260.31
4394.89
4694.73
5166.82
5881.49
6464.12
7057.38
7505.68
7717.2
7841.27
4117.75
4097.58
4305.99
4370.61
4610.99
5278.28
6047.64
6480.14
6991.99
6548
7471.94
7532.98
4253.77
4217.8
4386.76
4536.37
4709.07
5108.75
5950.02
6459.07
6379.22
7471.16
6971.48
7147.31
9485.43
9038.41
8818.95
9282.89
10511.7
11455.5
10823.1
10201.3
9262.91
8925.5
10440.6
12270.4
8476.71
8622.92
8536.61
8920.64
9817.48
10118
10259.5
10024.9
10378
10860.4
12275.4
12878.2
9916.99
9097.36
8789.1
9151.42
9976.5
10236.2
10270.6
10339.7
10402.6
10663.1
11748.8
12754.9
9085.58
8767.4
8404.67
9316.33
9922.9
10099.5
10124.9
10180.7
10651.3
11177
12221.7
12773.4
13498.3
14041.1
14206.1
14282.6
13990.5
13890.9
13925.6
14063.9
14223.9
14419.4
14340.7
14387.5
13273.9
13747.9
13795.8
13857.5
13555.2
13586
13703.7
13848.4
14070.6
14328.8
14297.4
14352.1
13150.4
13665.5
13718.8
13828.8
13526
13529.5
13654.9
13777.2
13976
14248.4
14225.5
14295.9
13022
13487.5
13494.3
13639
13400.9
13453.1
13633.4
13738.3
13926.6
14212.2
14238.3
14308.1
12927.7
13432.9
13448.8
13627.3
13424.9
13446.6
13626.4
13757.8
13902.4
14186.4
14227.1
14306
12859.4
13363.8
13400.6
13694.7
13451.4
13523.5
13667.4
13784.3
13922.4
14164.5
14209.1
14297.4
12812.6
13329.5
13434.5
13783
13552.7
13589.3
13683.4
13806.7
13929
14146.1
14183.9
14289.5
12795.2
13299.2
13534.9
13847.7
13600.7
13648.9
13713.1
13809.4
13911.3
14119.7
14180.8
14283.1
12773.6
13247.5
13596.8
13908.5
13647.7
13683.6
13722.4
13824.1
13896.6
14080.9
14161.5
14295.1
12779.4
13236.2
13645.2
13870
13701.5
13708.5
13745.3
13827.9
13877.7
14074
14193.9
14300.2
12756.6
13171.2
13569.5
13874.4
13731.3
13718.9
13758.6
13835.7
13895.2
14094
14208.5
14328.4
12772.1
13164.4
13773.5
13853.8
13745.8
13727.2
13752.1
13826.6
13894.9
14106.3
14266.3
14339.1
16007.1
16123.8
16329.6
16283.9
16251.5
15906.9
15547.6
15056.8
14826.8
15157.2
15154
15467.9
16076.3
16071.8
16272.8
16250.6
16235.3
16195.6
15647.2
15326.7
14988
15309.9
15312.3
15641.5
16193.5
16058.7
16287.4
16259.1
16285.3
16130.4
16380.7
15290.5
15294.9
15407.6
15628.5
15809.3
16294.5
16046.7
16244.2
16261.2
16277.8
16278.1
16223.3
16607.5
15435.4
15800.1
15723.5
16092.9
16341.2
16001.3
16295.3
16250.6
16296.7
16283.3
16348.2
16152.9
16525.9
15739.5
16134.5
16378
16403.2
15984.9
16182.9
16218.2
16290.2
16308.5
16387.6
16527.3
16587.9
17197.2
16117.9
16969.3
16446.3
15953.5
16203.8
16205.9
16309.9
16305.7
16390.8
16529.9
16677.6
17085.3
17262.8
17307.5
16687.3
15978.3
16146.2
16188.5
16287.2
16333.4
16463.6
16691.2
16862.9
17437.8
17651.9
18264.9
16981.4
16116.6
16316.6
16212.1
16320.9
16304.2
16410
16597.8
16831.5
17474.8
17850.6
18492.3
17596.1
16289.1
16026.9
16164.2
16267
16423.7
16603.8
16818.6
16986.2
17689.1
18109.8
18839
19159.1
17132.4
16711.9
16300.3
16307.4
16265.6
16342.5
16456.3
16813.8
17435.1
17864.8
18685.7
18743.9
17611.3
17392.2
17045.9
16793.1
16855.7
17068.8
17263.8
17299.1
17820.1
18275
19347.1
15166.5
15220.2
14675.7
14750.8
13796.4
13800
13788.7
13846.2
13973.1
14086.4
13815.7
12577.5
15300.4
15215.1
14620.8
14341.6
13538.8
13853.2
13699.2
13694.1
13875.3
14205.3
13676.9
13748.6
15481.4
15586.7
14430.6
14528.3
13660.1
13776.3
13796.1
13989.4
14164.5
14619.6
13924.7
14549.4
15659.4
15527.2
14373
14120.3
13396.7
13869.2
13786.9
14068.6
14266.1
14857.5
13876.5
15341.2
15985
15727.8
14121.2
13747.3
13610.9
13896.2
13923.4
14367.3
14613.8
15166.1
14206.9
15806.7
16255.5
15735
14131.1
13861.8
13827.1
14016.7
14079.7
14456.6
14719.9
15227.5
14162.5
16231.5
16737.3
15939.7
14082.8
13947.2
13897.7
14121.6
14216.5
14664.7
14931.9
15350.9
14497.2
16879.4
17176
16318.5
14536.9
14279.5
14113.1
14248.6
14345.3
14695.3
14905
15327.4
14800.8
17729.5
17733.4
16467.4
14832.4
14320.4
14153.5
14301.3
14431.5
14814.2
15077.2
15498.9
15079.6
18709.3
18080.8
17050.7
15359.7
14765.2
14422.1
14405.2
14432
14707.6
14733.5
14817
17390.9
19722.4
18066.9
17033
14920.1
14499.3
14186.4
14178.8
14396.2
15169.9
15336.1
16953.5
17840.3
20035
18887.5
17768.4
16013.5
15162.6
14566.6
14740.8
14933.7
14984.9
15852.7
16990.9
18089.4
20058
1924.1
2100.58
2055.19
2013.11
1909.02
1871.68
1000.32
2689.6
1254.61
2157.8
-599.741
-1280.47
1793.91
2086.86
2012.78
1995.94
1887.86
1871.48
1314.66
2746.18
1590.33
2443.14
-190.66
-855.615
1895.92
2048.45
1983.29
1933.15
1841.91
1778.57
1100.64
2643.37
1881.41
2751.63
1141.3
365.765
1900.33
2038.71
1954.65
1915.27
1815.12
1759.14
1323.99
1721.51
2322.47
2964.23
2341.72
1451.39
2013.67
2026.26
1944.09
1895.77
1791.65
1717.48
1384.36
1748.2
2939.93
3037.14
2637.08
2198.81
2132.98
2037.94
1938.1
1886.95
1777.84
1699.27
1377.3
1126.32
2405.04
3105.68
2727.95
2356.88
2377.63
2044.3
1942.24
1879.3
1770.84
1670.39
1327.25
838.98
2362.9
3006.04
2700.25
2351.19
2779.11
2137.08
1950.89
1883.9
1779.95
1677.33
1348.39
821.638
1801.66
3086.56
2684.18
2441.59
3207.69
2254.47
1983.61
1891.18
1789.82
1683.51
1366.34
1000.2
2486.2
2948.1
2691.77
2526.84
3599.21
2194.44
1993.84
1913.1
1807.27
1698.06
1470.28
1185.43
2224.48
3194.34
2789.38
2547.25
3733.79
2911.16
2143.89
1991
1852.57
1748.15
1628.32
1128.28
3494.77
3067.77
2909.98
2694.03
3709.26
3079.07
2581.33
2125.23
2048.77
2135.49
2201.22
1494.83
4512.26
3434.99
3132.58
2791.18
674.854
1945.51
4214.85
4854.7
5332.22
6047.17
6235.5
6668.69
6392.33
6322.27
6839.4
6910.42
689.118
1803.3
3439.33
4699.84
5328.82
5894.48
6444.6
6553.73
6212.17
6123.3
6350.13
6675.52
1347.11
2605.79
3675.54
4791.53
5361.45
6044.73
6388.95
6617.94
6360.7
6240.84
6422.61
6552.8
1537.25
2613.49
3803.38
4864.11
5459.95
5828.65
6281.44
6399.16
6198.96
6079.45
6142.75
6410.05
1905.32
2933.34
3793.07
5157.07
5533.94
6158.95
6414.95
6511.42
6293.03
6186.86
6211.65
6428.81
2114.62
3135.97
3880.6
4933.06
5446.85
6137.73
6221.71
6535.91
6230.53
6145.29
6078.91
6379.25
2304.37
3211.14
3539.77
4818.03
5507.65
6378.35
6495.01
6607.62
6354.27
6293.55
6219.17
6517.17
2165.52
3163.77
3341.69
4887.7
5555.33
6399.5
6578.91
6588.41
6279.27
6257.2
6146.36
6600.41
2203.42
3089.62
3208.78
4789.57
5612.94
6433.72
6618.27
6723.37
6522.9
6371.55
6298.97
6894.39
2316.41
2938.08
2860.34
4674.61
4977.29
6193.41
6418.87
6425.84
6244.8
6359.67
6253.59
7111.52
2342.54
2903.76
2135.89
4119.13
5433.28
6655.06
7465.97
7861.1
6655.27
6268.5
6532.85
7642.33
2269.83
2699.57
-244.096
4736.48
6247.74
6856.46
7465.85
7851.25
7139.27
6611.04
6786.92
7854.88
7223
5593.65
5900.68
5591.93
5442.87
5353.03
5207.94
5049.51
4853.23
4673.65
4428.34
4324.37
7468.85
5975.9
5747.56
5544.84
5451.13
5383.74
5273.91
5135.08
4969.74
4813.84
4574.77
4509.06
7576.02
7234.69
5647.85
5465.79
5455.5
5417.88
5315.51
5204.5
5045.72
4879.76
4610.16
4478.83
8017.23
7199.25
6733.07
5413.05
5483.41
5439.77
5358.73
5253.39
5123.5
4996.69
4747.26
4630.53
8898.99
7405.61
6556.56
5317.83
5523.41
5491.85
5399.53
5310.76
5170.73
5055.34
4813.51
4701.99
10140.6
7701.2
6775.04
4891.5
5521.46
5471.27
5396.51
5310.53
5215.85
5151.01
4967.25
4920.63
11630
8025.32
6590.57
5194.67
5535.71
5535.81
5454.01
5368.62
5244.61
5179.16
5026.16
5030.55
13468.6
8305.28
6501.86
4838.05
5452.55
5442.55
5393.16
5329.5
5247.59
5245.33
5143.37
5221.35
15142.2
9960.45
6675.26
5246.85
5520.88
5505.96
5456.46
5397.03
5288.38
5242.53
5126.94
5203.03
16347
13074.4
5552.69
4817.35
5412
5439.95
5352.66
5247.04
5239.02
5286.56
5213.18
5318.62
16973.7
14737
9795.98
6741.61
6026.02
5728.27
5695.62
5697.33
5588.33
5252.1
5011.27
5098.12
16142.9
14593.1
10401.3
8092.06
7338.27
6696.42
6541.52
6414.34
6255.19
5903.31
5717.85
5757.6
4145.11
4076.25
4422.02
4607.2
4828.02
4891.86
5475.37
6188.44
6322.37
6628.88
6865.67
6495.67
4250.19
4147.29
4586
4714.74
5038.02
5335.7
5817.84
6094.53
6376.04
6449.8
6837.56
6910.29
4060.27
3734.47
4470.09
4736.39
5193.72
5480.57
5801.06
5914.92
6176.99
6283.76
6517.23
6545.14
4172.69
3696.03
4610.96
4965.2
5285.53
5591.61
5983.99
6090.1
6145
6278.86
6523.74
6649.91
4125.45
3231.07
4773
4919.3
5425.4
5787.3
6023.14
6093.86
6027.28
6187.47
6323.42
6444.08
4517.05
4319.34
4492.87
5448.53
5749.38
5987.72
6311.44
6222.62
6174.94
6207.41
6342.92
6509.08
4762.16
5353.72
5201.27
5410.23
5785.42
6068.49
6267.41
6283.7
6174.11
6232.82
6281.03
6447.28
5092.28
5639.29
5949.74
5980.01
5962.41
6188.61
6279.05
6313.51
6215.67
6286.76
6312.85
6500.76
5170.12
5641.74
5996.4
6078.27
5975.28
6170.96
6234.18
6283.57
6207.15
6280.11
6288.73
6480.56
5301.09
5747.55
6062.22
6133.92
6021.27
6184.97
6237.86
6301.21
6227.14
6290.76
6308.79
6580.03
5087.47
5626.32
5987.13
6081.64
5999.14
6170.06
6217.36
6287.53
6232.57
6290.19
6287.76
6651.25
5610.17
5962.2
6255.16
6372.24
6258.14
6390.59
6410.36
6364.91
6258.56
6327.43
6411.84
6820.67
13154.9
9474.96
8386.64
9484.71
9986.23
10097.4
10162.5
10382.8
10696.3
11129.1
11988.1
12741.6
11904
11102
9494.74
9882.49
10009.3
10088.6
10118.2
10296.2
10672.1
11258.7
12104.1
12657.2
10771.6
9722.57
9929.52
9954.26
10026.1
10088
10158.1
10342.4
10702.2
11185.1
11984.8
12607.3
10110
9923.89
9996.12
9958.98
10046.1
10092
10156.4
10279
10613.9
11225.4
11962.7
12548.7
10236.3
9940.26
10060.8
9997.1
10061.5
10100.5
10167.5
10279
10567.5
11164.9
11890.3
12499.3
10245.7
10013.1
10075.1
10022.1
10074.9
10110.9
10160.9
10286.6
10401.4
11184.7
11840.1
12483.8
10244.6
10053.7
10093.1
10042.7
10083.9
10118.2
10157.8
10267.5
10230.5
11187.9
11782.1
12445.7
10292.3
10080.3
10100.7
10059.2
10092.3
10128.2
10149.9
10294.6
10005.6
11275.8
11762.4
12451.8
10263.1
10102.4
10112.8
10071.4
10096.1
10132.4
10146.2
10250.3
9746.46
11323.1
11729.4
12433.5
10264.5
10106.1
10126.3
10079.1
10104.1
10139.4
10135.6
10241.7
9552.15
11509
11741.3
12464.8
10254.1
10128.4
10139.1
10080.7
10108
10138.1
10134.1
10269
9613.7
11593.8
11795.2
12460.8
10239.4
10116.9
10145.6
10109.8
10173.8
10164.4
10149
10309.8
9145.08
11817.8
11873
12504.9
12741.3
12751.2
12720.2
12724.4
12699.6
12702.3
12682.7
12688.4
12670.9
12679.8
12663.7
12673.1
12661.3
12668.6
12661.3
12665.9
12661.9
12664.2
12662.8
12663.2
13053.4
13030.2
12918
12901.3
12814.3
12809.8
12741.8
12744.8
12702.7
12705.3
12681.6
12683.5
12670.5
12672.5
12665.3
12667.3
12663.3
12664.9
12663.2
12663.6
13362.5
13337.7
13104.1
13041.8
12927.8
12870.1
12810.5
12773.3
12735.8
12719.3
12695.7
12690.1
12676.4
12675.4
12667.7
12668.4
12664.4
12665.3
12663.6
12664
11973.5
12121.1
12211.3
12339.7
12394.7
12480.8
12513.8
12564.6
12583.9
12614
12623.4
12640.5
12644.2
12653.8
12654.4
12659.8
12659.3
12662
12661.7
12662.4
12049.6
12196.1
12305.2
12397.1
12461.3
12520.6
12551.1
12590.6
12603.9
12628.4
12633.6
12648
12648.8
12657.4
12656.3
12661.4
12660
12662.7
12661.9
12662.5
12507.6
12564.9
12562.4
12606.5
12602.7
12631.6
12628
12647.1
12642.9
12656.1
12651.6
12660.8
12656.5
12663.1
12659.2
12663.8
12661
12663.6
12662.3
12662.8
5212.74
4282.03
4218.88
3916.82
3834.38
3700.81
3697.72
3529.17
3279.51
2642.46
1577.92
533.875
-1.97345
60.0768
127.164
114.794
177.492
92.9481
-1.14541
864.356
3420.34
3464.81
3591.76
3528.9
3559.82
3462.06
3400.48
3183.41
2685.47
1978.26
844.271
-363.881
-573.258
-683.128
-243.02
-108.423
-135.296
-201.937
-120.993
-439.758
3014.72
3090.88
3290.93
3283.03
3349.77
3342.87
3224.34
2787.66
2114.65
1164.29
726.766
-843.236
-600.568
-328.859
10.5394
148.5
22.0408
3.44205
-232.638
44.6676
2259.98
2459.03
2479.76
2644.16
2989.58
2686.95
1647.24
1177.16
665.248
746.838
288.814
-251.193
-615.689
-645.419
-380.945
-20.9554
-93.169
-18.9278
-221.695
17.8368
2645.51
2727.08
1431.04
-967.057
-116.404
2377.52
2315.56
524.484
899.474
199.1
206.983
-390.517
-471.124
-501.911
-234.419
-43.8621
-66.0115
21.9894
-179.531
94.2276
-3593.96
857.159
370.371
-124.363
246.421
280.129
814.096
381.724
604.429
237.299
255.801
-121.381
-228.166
-302.287
-214.526
-37.6613
-104.35
4.63623
-188.811
73.4027
)
;

boundaryField
{
    rotor
    {
        type            calculated;
        value           nonuniform List<scalar> 
192
(
15958.1
15949.6
15957.4
15950.7
15971.6
15979.3
15983.5
15922.2
15799.7
15666.8
15585.4
15569.6
15611.7
15719.5
15834.5
15933.2
15963.8
15962
15925.6
15874.8
15905
15965.2
15046.5
16542.9
7554.52
7549.58
7551.6
7549.79
7559.01
7561.37
7574.12
7574.16
7598.24
7638.07
7680.39
7589.81
7409.8
7210.67
7127.68
7139.43
7221.33
7362.04
7538.47
7746.65
7956.7
8060.71
8165.37
8089.53
2554.62
2546.52
2543.81
2539.5
2546.69
2551.6
2567.28
2574.39
2580.14
2580.04
2576.89
2570.05
2560.05
2544.79
2529.19
2511.59
2496.64
2481.05
2477.25
2480.02
2482.79
2467.71
2468.75
2461.08
4402.77
4406.1
4409.02
4414.69
4420.32
4428.18
4432.89
4434.05
4432.54
4448.91
4467.31
4451.46
4398.05
4387.33
4426.78
4516.49
4648.08
4782.32
4865.59
4848.3
4698.59
4529.71
4600.33
4677.55
15958.1
15979.2
15960.1
15961.4
15954.3
15966.7
15986.3
16058.1
16182.3
16324
16422.7
16518
4677.55
4398.6
4115.73
4154.42
4202.73
4218.6
4986.42
5927.42
7432.15
10614.3
13578.7
27044
7554.52
7578.73
7587.11
7602.2
7611.84
7626.85
7676.03
7747.96
7817.17
7870.69
7921.38
7564.3
16542.9
16427.2
20786.9
22437.8
22428.9
28549.5
33746.8
35496.3
45971.2
75555.3
63416.2
36919.9
2554.62
2574.13
2571.53
2589.63
2602.27
2650.51
2688.84
2786.45
2851.49
2973.83
3016.41
3154.18
8089.53
7990.38
7804.17
7565.69
7149.85
6415.99
5687.4
5259.89
7149.55
13380.1
23076.7
28066.9
4402.77
4440.56
4439.38
4461.14
4460.92
4463.05
4458.46
4465.07
4526.75
4616.51
4696
4811.51
2461.08
2485.22
2490.61
2514.89
2457.66
2471.37
2945.6
3797.8
5395.34
10035.2
11992.1
17081
)
;
    }
    stator
    {
        type            calculated;
        value           nonuniform List<scalar> 
260
(
13853.8
13745.8
13727.2
13752.1
13826.6
13894.9
14106.3
14266.3
14339.1
18743.9
17611.3
17392.2
17045.9
16793.1
16855.7
17068.8
17263.8
17299.1
17820.1
18275
19347.1
18887.5
17768.4
16013.5
15162.6
14566.6
14740.8
14933.7
14984.9
15852.7
16990.9
18089.4
20058
3709.26
3079.07
2581.33
2125.23
2048.77
2135.49
2201.22
1494.83
4512.26
4736.48
6247.74
6856.46
7465.85
7851.25
7139.27
6611.04
6786.92
7854.88
16142.9
14593.1
10401.3
8092.06
7338.27
6696.42
6541.52
6414.34
6255.19
5903.31
5717.85
5757.6
5610.17
5962.2
6255.16
6372.24
6258.14
6390.59
6410.36
6364.91
6258.56
6327.43
6411.84
6820.67
10239.4
10116.9
10145.6
10109.8
10173.8
10164.4
10149
10309.8
9145.08
16007.1
16076.3
16193.5
16294.5
16341.2
16403.2
16446.3
16687.3
16981.4
17596.1
19159.1
18743.9
14387.5
14352.1
14295.9
14308.1
14306
14297.4
14289.5
14283.1
14295.1
14300.2
14328.4
14339.1
1924.1
1793.91
1895.92
1900.33
2013.67
2132.98
2377.63
2779.11
3207.69
3599.21
3733.79
3709.26
12577.5
13748.6
14549.4
15341.2
15806.7
16231.5
16879.4
17729.5
18709.3
19722.4
20035
20058
7223
7468.85
7576.02
8017.23
8898.99
10140.6
11630
13468.6
15142.2
16347
16973.7
16142.9
6910.42
6675.52
6552.8
6410.05
6428.81
6379.25
6517.17
6600.41
6894.39
7111.52
7642.33
7854.88
13154.9
11904
10771.6
10110
10236.3
10245.7
10244.6
10292.3