/*--------------------------------*- C++ -*----------------------------------*\
| =========                 |                                                 |
| \\      /  F ield         | OpenFOAM: The Open Source CFD Toolbox           |
|  \\    /   O peration     | Version:  2212                                  |
|   \\  /    A nd           | Website:  www.openfoam.com                      |
|    \\/     M anipulation  |                                                 |
\*---------------------------------------------------------------------------*/
FoamFile
{
    version     2.0;
    format      ascii;
    arch        "LSB;label=32;scalar=64";
    class       surfaceScalarField;
    location    "1.5";
    object      phi;
}
// * * * * * * * * * * * * * * * * * * * * * * * * * * * * * * * * * * * * * //

dimensions      [0 3 -1 0 0 0 0];

oriented        oriented;

internalField   nonuniform List<scalar> 
6392
(
4.24277e-05
-4.24277e-05
7.82244e-05
-3.57967e-05
0.00010393
-2.57051e-05
8.50182e-05
1.89113e-05
4.37963e-05
4.12219e-05
-6.00834e-05
0.00010388
-0.000312766
0.000252682
-0.00056766
0.000254895
-0.000710262
0.000142601
-0.000808317
9.80559e-05
-0.000840966
3.26484e-05
-1.62494e-05
-0.000824716
4.10651e-05
-8.34928e-05
7.45025e-05
-6.92341e-05
8.13207e-05
-3.25232e-05
3.94801e-05
6.07519e-05
-6.72125e-05
0.000147914
-0.00025083
0.000287498
-0.000397548
0.0003994
-0.000501964
0.000359311
-0.000597439
0.000238075
-0.000668968
0.000169585
-0.00071099
7.46704e-05
-1.43493e-05
-0.00071289
4.74876e-05
-0.00013098
8.70062e-05
-0.000108753
0.000108901
-5.44178e-05
9.29499e-05
7.67029e-05
1.56281e-05
0.000225236
-0.000120112
0.000423238
-0.00024192
0.000521208
-0.000335093
0.000452485
-0.000419747
0.000322729
-0.00047902
0.000228859
-0.000518704
0.000114354
3.97345e-05
-0.000572787
5.17406e-05
-0.000182721
8.76478e-05
-0.00014466
0.00010632
-7.30904e-05
9.42378e-05
8.87855e-05
3.85387e-05
0.000280935
-2.81557e-05
0.000489932
-9.36288e-05
0.000586681
-0.000145833
0.00050469
-0.000188611
0.000365506
-0.000185311
0.000225559
-0.000214738
0.000143781
5.42604e-05
-0.000229264
6.44371e-05
-0.000247158
0.000100782
-0.000181005
0.00011702
-8.93285e-05
0.000107621
9.81846e-05
8.18273e-05
0.000306729
6.15978e-05
0.000510162
6.28886e-05
0.00058539
5.24785e-05
0.0005151
5.98144e-05
0.00035817
7.6935e-05
0.000208438
9.54235e-05
0.000125293
-2.12301e-05
0.000170914
7.60507e-05
-0.000323209
0.000109749
-0.000214703
0.000114925
-9.4505e-05
9.8242e-05
0.000114868
7.11091e-05
0.000333862
7.37007e-05
0.00050757
9.73547e-05
0.000561736
0.000116897
0.000495557
0.000151807
0.00032326
0.000206517
0.000153728
0.000294206
3.7604e-05
-9.22849e-05
0.000365261
5.94135e-05
-0.000382622
7.10086e-05
-0.000226298
4.71169e-05
-7.06133e-05
2.76133e-05
0.000134371
1.40098e-05
0.000347465
4.18466e-05
0.000479733
0.000106687
0.000496895
0.000165167
0.000437077
0.000210764
0.000277664
0.000251483
0.000113009
0.000298663
-9.57622e-06
-0.000164712
0.000371091
-3.28926e-06
-0.000379333
-5.98238e-05
-0.000169763
-0.000113871
-1.65666e-05
-0.000102856
0.000123357
-4.45297e-05
0.000289139
3.23412e-05
0.000402862
0.000118147
0.000411089
0.000205696
0.000349529
0.000265304
0.000218056
0.000298521
7.97917e-05
0.00032932
-4.03754e-05
-0.000173547
0.000338155
-7.55735e-05
-0.00030376
-0.000157353
-8.79836e-05
-0.000197591
2.36715e-05
-0.000160145
8.59106e-05
-5.44785e-05
0.000183472
7.03686e-05
0.000278015
0.000160917
0.00032054
0.000250307
0.00026014
0.000303698
0.000164665
0.00031907
6.4419e-05
0.000316535
-3.78399e-05
-0.000149291
0.000292279
-0.000139415
-0.000164344
-0.000200322
-2.70773e-05
-0.000196642
1.99914e-05
-0.000145363
3.4632e-05
-5.75923e-05
9.57018e-05
7.24375e-05
0.000147985
0.000181342
0.000211635
0.00025885
0.000182632
0.000299874
0.000123641
0.000301305
6.29879e-05
0.000282158
-1.86921e-05
-0.000114672
0.000247538
-0.00020556
4.12151e-05
-0.000185999
-4.66377e-05
-0.000113789
-5.22181e-05
-4.45304e-05
-3.46271e-05
3.3321e-05
1.78504e-05
0.000121049
6.02578e-05
0.000221145
0.000111539
0.000287416
0.00011636
0.000313492
9.75648e-05
0.000312334
6.41457e-05
0.000297347
-3.70439e-06
-9.40933e-05
0.000276768
-3.77849e-05
7.90001e-05
-1.59466e-05
-6.8476e-05
2.90694e-05
-9.72341e-05
8.60918e-05
-9.16495e-05
0.000146842
-4.28998e-05
0.000204511
2.58876e-06
0.00028177
3.42804e-05
0.000351393
4.67373e-05
0.000394
5.49579e-05
0.000426209
3.19367e-05
0.000444392
-2.18878e-05
0.000435326
-8.50276e-05
-0.000755804
-6.89128e-05
-0.000627128
-0.000128676
-0.000455287
-0.00017184
-0.000276624
-0.000178663
-0.000115849
-0.000160775
1.03443e-05
-0.000126194
0.000103426
-9.30813e-05
0.000160654
-5.72279e-05
0.000163449
-2.79528e-06
0.000124673
3.8776e-05
7.31431e-05
5.15297e-05
7.31431e-05
-0.000681283
-0.00010052
-0.000590578
-0.000219381
-0.000448533
-0.000313885
-0.000282113
-0.000345083
-0.000144397
-0.000298492
-1.0589e-05
-0.000260001
0.000118428
-0.000222099
0.000123404
-6.22034e-05
5.46317e-05
6.59768e-05
5.71054e-06
8.76972e-05
8.77747e-07
5.63625e-05
7.40208e-05
-0.000594568
-7.87394e-05
-0.000549491
-0.000264458
-0.000444788
-0.000418588
-0.000306083
-0.000483788
-0.000197276
-0.000407298
-0.000109311
-0.000347967
-5.48425e-05
-0.000276567
-5.98254e-05
-5.72205e-05
-2.97656e-05
3.5917e-05
-1.26656e-06
5.91981e-05
4.84948e-06
5.02464e-05
7.88703e-05
-0.000241009
-6.69948e-05
-0.000253534
-0.000251932
-0.000222902
-0.00044922
-0.000160972
-0.000545718
-0.000104262
-0.000464008
-6.57348e-05
-0.000386494
-2.20306e-05
-0.000320271
2.44662e-05
-0.000103717
1.52929e-05
4.50904e-05
1.54652e-05
5.90258e-05
1.70468e-05
4.86649e-05
9.59171e-05
0.000234433
-0.000130514
0.000246291
-0.00026379
0.000198799
-0.000401728
0.000103509
-0.000450428
2.40985e-05
-0.000384598
3.41146e-05
-0.00039651
8.10536e-05
-0.00036721
6.56166e-05
-8.82802e-05
-1.58272e-05
0.000126534
-1.82156e-05
6.14142e-05
-2.01131e-05
5.05623e-05
7.5804e-05
0.0004296
-0.000194853
0.000447622
-0.000281812
0.000380967
-0.000335073
0.000215218
-0.000284679
6.77312e-05
-0.000237111
-1.22474e-05
-0.000316531
-4.63584e-05
-0.000333099
-6.89054e-05
-6.57331e-05
-9.05338e-05
0.000148163
-8.97353e-05
6.06157e-05
-8.11728e-05
4.19998e-05
-5.36874e-06
0.000441395
-0.000265157
0.000443531
-0.000283949
0.000368727
-0.000260269
0.000257613
-0.000173565
0.000119514
-9.90122e-05
-9.23161e-05
-0.000104701
-0.000253638
-0.000171777
-0.000233364
-8.60072e-05
-0.000127039
4.18369e-05
-8.43405e-05
1.79175e-05
-9.49215e-05
5.25808e-05
-0.00010029
0.000325314
-0.000252316
0.000319448
-0.000278082
0.00031477
-0.000255591
0.000282481
-0.000141276
0.000192097
-8.62831e-06
5.17461e-05
3.56494e-05
-0.000113897
-6.13348e-06
-0.000159664
-4.02407e-05
-5.76568e-05
-6.017e-05
-1.68283e-05
-2.2911e-05
-4.56954e-05
8.14479e-05
-0.000145986
0.000262389
-0.000222427
0.000244329
-0.000260022
0.000232565
-0.000243827
0.000224218
-0.000132929
0.000208174
7.41582e-06
0.000186798
5.70251e-05
0.000131074
4.95904e-05
7.43094e-05
1.65238e-05
1.06893e-05
3.45008e-06
5.10958e-05
-6.33175e-05
7.94685e-05
5.30752e-05
-6.65171e-05
0.000219012
-0.0001939
0.000198192
-0.000239203
0.000179307
-0.000224942
0.000178466
-0.000132087
0.000203123
-1.72411e-05
0.00023008
3.00674e-05
0.000247594
3.20773e-05
0.000252199
1.19179e-05
0.000217836
3.78138e-05
0.000177677
-2.31588e-05
0.000144433
8.63195e-05
7.79157e-05
0.00025592
-0.000173052
0.000232467
-0.00021575
0.000208727
-0.000201202
0.000207685
-0.000131046
0.000248924
-5.84802e-05
0.000296506
-1.75138e-05
0.000338881
-1.02976e-05
0.000347826
2.97235e-06
0.000359532
2.61082e-05
0.00025083
8.55429e-05
0.000193164
0.000143986
0.000271079
0.0004167
-0.000154426
0.000388233
-0.000187283
0.000366711
-0.00017968
0.000372184
-0.000136519
0.000411388
-9.76842e-05
0.000452095
-5.82212e-05
0.000484319
-4.25207e-05
0.000489393
-2.1021e-06
0.000484247
3.12544e-05
0.000375095
0.000194695
0.000289013
0.000230068
0.000560092
3.37592e-05
-3.37592e-05
5.57757e-05
-2.20165e-05
7.10559e-05
-1.52802e-05
7.27302e-05
-1.67427e-06
7.32093e-05
-4.79104e-07
7.07961e-05
2.41317e-06
7.13173e-05
-5.21161e-07
5.28701e-05
1.84472e-05
-2.66504e-05
7.95205e-05
-0.000222458
0.000195808
-0.000558872
0.000336413
0.00032901
-0.000887882
3.40719e-05
-6.78311e-05
5.70196e-05
-4.49642e-05
6.22285e-05
-2.04891e-05
5.32935e-05
7.26074e-06
2.99747e-05
2.28397e-05
-1.6252e-05
4.86398e-05
-8.17663e-05
6.49932e-05
-0.000172168
0.000108849
-0.000351908
0.00025926
-0.000589057
0.000432957
-0.000728668
0.000476025
0.000428056
-0.000827714
4.00741e-05
-0.000107905
6.01241e-05
-6.50142e-05
5.86908e-05
-1.90558e-05
4.41052e-05
2.18463e-05
-4.3536e-06
7.12985e-05
-8.00529e-05
0.000124339
-0.000166931
0.000151871
-0.000259452
0.00020137
-0.000394723
0.000394531
-0.000502897
0.000541131
-0.000569428
0.000542556
0.000484015
-0.000625387
4.83857e-05
-0.000156291
7.4496e-05
-9.11245e-05
6.02716e-05
-4.83141e-06
4.44003e-05
3.77176e-05
1.6353e-05
9.93459e-05
-4.57875e-05
0.00018648
-0.000131918
0.000238002
-0.000225965
0.000295418
-0.00031637
0.000484935
-0.000365624
0.000590385
-0.000396201
0.000573133
0.000501461
-0.000413647
4.42103e-05
-0.000200501
6.69618e-05
-0.000113876
5.9387e-05
2.74342e-06
6.13122e-05
3.57924e-05
4.98388e-05
0.000110819
3.46489e-06
0.000232854
-7.27854e-05
0.000314252
-0.000176801
0.000399433
-0.000236808
0.000544942
-0.000240667
0.000594244
-0.000229109
0.000561576
0.000481524
-0.000209172
1.28263e-05
-0.000213328
1.16471e-05
-0.000112697
2.93661e-05
-1.49756e-05
5.36829e-05
1.14755e-05
3.26859e-05
0.000131816
-9.65152e-06
0.000275191
-9.45879e-05
0.000399189
-0.000187363
0.000492208
-0.000208711
0.000566291
-0.000183717
0.000569249
-0.000148348
0.000526207
0.000450694
-0.000117518
-4.48858e-05
-0.000168442
-8.15168e-05
-7.60658e-05
-9.45267e-05
-1.96563e-06
-9.74187e-05
1.43675e-05
-0.000111306
0.000145703
-0.000137707
0.000301592
-0.000195868
0.00045735
-0.000218679
0.000515019
-0.000194785
0.000542396
-0.000136581
0.000511046
-8.26211e-05
0.000472247
0.000409346
-4.12736e-05
-8.45841e-05
-8.38576e-05
-0.000148328
-1.23224e-05
-0.000201003
5.07102e-05
-0.000235692
4.90557e-05
-0.000251535
0.000161546
-0.000263893
0.00031395
-0.00026122
0.000454677
-0.000225423
0.000479222
-0.000158794
0.000475767
-6.84938e-05
0.000420745
1.22076e-05
0.000391546
0.00034154
8.0014e-05
-0.000105943
2.20858e-05
-0.000228555
0.000110289
-0.000293351
0.000115507
-0.000331986
8.76907e-05
-0.000344976
0.000174536
-0.000334141
0.000303115
-0.000292518
0.000413054
-0.000204447
0.000391152
-9.65645e-05
0.000367884
2.76782e-05
0.000296502
0.000162425
0.000256798
0.000216948
0.000287017
-0.000202825
0.000224911
-0.000265606
0.00017307
-0.000330998
0.000180899
-0.000398023
0.000154716
-0.000412165
0.000188678
-0.000367417
0.000258367
-0.000291487
0.000337124
-0.000175799
0.000275464
-1.86454e-05
0.00021073
0.000149164
0.000128693
0.000309501
9.64612e-05
6.29825e-05
0.000463467
-0.000228548
0.000453459
-0.000284114
0.000228635
-0.000355997
0.000252783
-0.000410137
0.000208856
-0.000399659
0.0001782
-0.00035117
0.000209878
-0.000278773
0.000264726
-0.000130187
0.000126879
6.719e-05
1.3353e-05
0.00025696
-6.1077e-05
0.000434767
-8.13459e-05
-0.000111694
0.000609443
-7.48656e-05
0.000528324
-0.000210149
0.000363918
-0.000267743
0.000310378
-0.000313806
0.000254918
-0.000319507
0.000183902
-0.000253923
0.000144294
-9.48011e-05
0.000105604
0.000118992
-8.69144e-05
0.000311344
-0.000178999
0.000483007
-0.000232739
0.000650379
-0.000248718
0.000795965
-0.00025728
-0.00107655
0.000188665
-0.00120388
0.000127334
-0.00123846
3.45802e-05
-0.00121565
-2.28063e-05
-0.00115045
-6.52048e-05
-0.00105569
-9.4756e-05
-0.000917728
-0.000137965
-0.000746842
-0.000170886
-0.00053839
-0.000208452
-0.000309349
-0.000229041
-7.89424e-05
-0.000230407
-7.89424e-05
-0.000921568
0.000282519
-0.000958155
0.00016392
-0.000942125
1.85507e-05
-0.00088787
-7.70615e-05
-0.000821259
-0.000131815
-0.000743135
-0.000172881
-0.000656689
-0.000224412
-0.000546566
-0.000281008
-0.000422414
-0.000332605
-0.00028004
-0.000371415
-0.00010548
-0.000404966
-0.000184423
-0.000674963
0.000332095
-0.000673265
0.000162222
-0.000636234
-1.84794e-05
-0.000593943
-0.000119353
-0.000546318
-0.00017944
-0.000490202
-0.000228996
-0.000430787
-0.000283826
-0.000359152
-0.000352644
-0.0002883
-0.000403457
-0.000205295
-0.00045442
-9.90009e-05
-0.00051126
-0.000283424
-0.000428895
0.000347343
-0.000418776
0.000152103
-0.000408822
-2.84334e-05
-0.000405514
-0.000122662
-0.000396719
-0.000188235
-0.000372373
-0.000253342
-0.000331767
-0.000324432
-0.000275111
-0.0004093
-0.000219648
-0.00045892
-0.000150276
-0.000523792
-7.65299e-05
-0.000585006
-0.000359954
-0.000200918
0.000339089
-0.000202242
0.000153426
-0.000232558
1.88305e-06
-0.000260437
-9.47827e-05
-0.000266732
-0.000181939
-0.000259543
-0.000260532
-0.000245817
-0.000338158
-0.000216823
-0.000438294
-0.000179944
-0.000495799
-0.000118378
-0.000585357
-4.32994e-05
-0.000660085
-0.000403253
-0.000112398
0.000333968
-0.000115633
0.000156662
-0.000132017
1.82677e-05
-0.000144291
-8.2509e-05
-0.000145083
-0.000181148
-0.000139512
-0.000266103
-0.000148648
-0.000329021
-0.000153211
-0.000433731
-0.000149984
-0.000499026
-0.000105492
-0.000629849
-3.96823e-05
-0.000725896
-0.000442935
-2.54127e-05
0.000318108
-2.27675e-05
0.000154016
-4.48808e-06
-1.17351e-08
2.48363e-05
-0.000111833
4.02743e-05
-0.000196586
4.65277e-05
-0.000272356
2.03671e-05
-0.000302861
-2.08197e-05
-0.000392545
-6.78254e-05
-0.00045202
-6.68894e-05
-0.000630785
-2.49448e-05
-0.00076784
-0.00046788
0.000137691
0.000260431
0.000181978
0.000109729
0.000221991
-4.00248e-05
0.000262402
-0.000152244
0.000276779
-0.000210963
0.000264217
-0.000259795
0.000225677
-0.00026432
0.000158308
-0.000325176
7.14864e-05
-0.000365198
1.45965e-05
-0.000573895
-1.91953e-06
-0.000751324
-0.0004698
0.000387235
0.000160214
0.000452697
4.42664e-05
0.00049
-7.73283e-05
0.000506286
-0.000168529
0.000498196
-0.000202872
0.000458581
-0.000220181
0.000394344
-0.000200083
0.000312718
-0.000243549
0.000237144
-0.000289625
0.00017547
-0.000512221
5.97082e-05
-0.000635562
-0.000410091
0.000584275
3.94059e-05
0.000666506
-3.79644e-05
0.000709941
-0.000120763
0.000711263
-0.000169852
0.000685937
-0.000177547
0.000631193
-0.000165436
0.000570201
-0.000139092
0.000504133
-0.000177481
0.000441248
-0.00022674
0.000328288
-0.000399262
0.000124425
-0.000431699
-0.000285667
0.000758066
-0.000109217
0.000850729
-0.000130628
0.000879945
-0.000149979
0.000866775
-0.000156682
0.000832055
-0.000142826
0.000786152
-0.000119533
0.000750585
-0.000103524
0.000695883
-0.00012278
0.000614559
-0.000145415
0.000441635
-0.000226338
0.000249596
-0.00023966
-3.60702e-05
0.000907419
-0.000220671
0.000951338
-0.000174547
0.000951937
-0.000150578
0.00093594
-0.000140684
0.000908556
-0.000115443
0.000878838
-8.98144e-05
0.000839565
-6.42506e-05
0.000762259
-4.5474e-05
0.000653533
-3.66894e-05
0.000466397
-3.92023e-05
0.000273555
-4.68183e-05
0.000237485
5.31775e-05
-5.31775e-05
8.87463e-05
-3.55688e-05
0.000113581
-2.48351e-05
0.000122853
-9.27112e-06
0.000123386
-5.33263e-07
9.42138e-05
2.9172e-05
5.01834e-05
4.40304e-05
7.59758e-06
4.25858e-05
-2.57571e-05
3.33547e-05
-3.93997e-05
1.36426e-05
-3.66271e-05
-2.77261e-06
-1.55567e-05
-2.10704e-05
3.97015e-05
-9.2879e-05
8.37107e-05
-7.9578e-05
0.000107264
-4.83886e-05
0.000120793
-2.28004e-05
0.000116434
3.8265e-06
7.70378e-05
6.85678e-05
1.07363e-05
0.000110332
-5.47381e-05
0.00010806
-9.68632e-05
7.54798e-05
-0.000113663
3.04421e-05
-0.000111927
-4.50865e-06
-3.00307e-05
-9.74527e-05
3.22342e-05
-0.000125113
7.34909e-05
-0.000120835
9.7e-05
-7.18977e-05
0.000125465
-5.12656e-05
0.0001339
-4.60807e-06
0.000102755
9.97129e-05
4.26281e-05
0.000170459
-2.46985e-05
0.000175387
-7.28936e-05
0.000123675
-9.98816e-05
5.74301e-05
-0.000107859
3.46878e-06
-3.1646e-05
-0.000106244
2.22272e-05
-0.00014734
4.36965e-05
-0.000142304
7.21575e-05
-0.000100359
0.000105963
-8.50713e-05
0.000110884
-9.52858e-06
8.05631e-05
0.000130034
2.16513e-05
0.00022937
-3.61986e-05
0.000233237
-8.20647e-05
0.000169541
-0.000122976
9.83414e-05
-0.000166842
4.73349e-05
5.2422e-05
-0.00025091
9.13193e-06
-0.000156472
1.93575e-05
-0.000152529
5.01003e-05
-0.000131102
7.2181e-05
-0.000107152
5.18261e-05
1.08263e-05
-3.99856e-08
0.0001819
-5.63263e-05
0.000285657
-9.94494e-05
0.00027636
-0.000137046
0.000207138
-0.000186069
0.000147364
-0.000303448
0.000164714
0.000233305
-0.000484332
1.16343e-05
-0.000168107
2.12478e-05
-0.000162143
1.39431e-05
-0.000123797
-7.86933e-06
-8.53396e-05
-7.06387e-05
7.35957e-05
-0.000140923
0.000252184
-0.000167866
0.000312599
-0.000172177
0.000280671
-0.000186104
0.000221065
-0.0002575
0.00021876
-0.000411593
0.000318808
0.000361522
-0.00053981
-9.15272e-06
-0.000158954
-1.76011e-05
-0.000153695
-5.56068e-05
-8.57911e-05
-0.000118823
-2.21231e-05
-0.000204389
0.000159162
-0.000245081
0.000292876
-0.000241433
0.000308951
-0.000230506
0.000269745
-0.000248582
0.000239141
-0.000336323
0.000306501
-0.00043288
0.000415364
0.000411084
-0.000482442
-5.54661e-05
-0.000103488
-0.00010131
-0.000107851
-0.000148344
-3.87563e-05
-0.000231726
6.12581e-05
-0.000311192
0.000238629
-0.000334909
0.000316592
-0.000331409
0.00030545
-0.000322725
0.000261061
-0.00033535
0.000251765
-0.000375581
0.000346732
-0.000389923
0.000429706
0.000403464
-0.000382303
-0.00010764
4.15166e-06
-0.000182932
-3.25584e-05
-0.000250607
2.89189e-05
-0.000330583
0.000141234
-0.000385802
0.000293847
-0.000400334
0.000331125
-0.00039266
0.000297776
-0.000384852
0.000253254
-0.000384846
0.00025176
-0.000382112
0.000343998
-0.000338926
0.00038652
0.000328621
-0.000264083
-0.000209549
0.0002137
-0.000280533
3.84261e-05
-0.000338462
8.68481e-05
-0.00039899
0.000201761
-0.000445354
0.000340212
-0.000470886
0.000356657
-0.000469111
0.000296002
-0.000460104
0.000244246
-0.000446227
0.000237882
-0.000406234
0.000304005
-0.00029891
0.000279196
0.000186419
-0.000156708
-9.79457e-05
0.000311646
-0.000213528
0.000154008
-0.00029616
0.000169481
-0.000353997
0.000259598
-0.000381405
0.00036762
-0.000400145
0.000375396
-0.000438789
0.000334646
-0.000493678
0.000299135
-0.000492781
0.000236985
-0.000427713
0.000238938
-0.000256543
0.000108026
-5.94199e-06
-6.41819e-05
5.03229e-05
0.000261323
-3.31671e-05
0.000237498
-0.000119652
0.000255966
-0.000181258
0.000321204
-0.000203563
0.000389925
-0.000218739
0.000390573
-0.000246788
0.000362695
-0.000264793
0.000317139
-0.000307916
0.000280109
-0.000288394
0.000219415
-0.00012719
-5.31781e-05
8.10669e-05
-0.000214199
4.52848e-06
-2.55988e-05
3.38007e-05
-2.92723e-05
5.86329e-05
-2.48322e-05
8.13682e-05
-2.27353e-05
0.00010346
-2.20919e-05
0.000111107
-7.64719e-06
8.74398e-05
2.36675e-05
2.56834e-05
6.17565e-05
-2.56333e-05
5.13166e-05
-4.86518e-05
2.30186e-05
-3.07507e-05
-1.79011e-05
-3.07507e-05
-7.44097e-05
-4.86418e-05
-4.13555e-05
-6.23264e-05
-1.34005e-05
-5.27872e-05
1.23567e-05
-4.84925e-05
3.76482e-05
-4.73834e-05
4.90494e-05
-1.90484e-05
4.97968e-05
2.29201e-05
3.91412e-05
7.2412e-05
2.82297e-05
6.22282e-05
1.4793e-05
3.64553e-05
-5.08962e-06
1.98149e-06
-3.58403e-05
-0.000121373
-3.35125e-05
-0.000152412
-3.12876e-05
-0.000166126
-3.90729e-05
-0.000169475
-4.51433e-05
-0.000151491
-6.53682e-05
-0.000115485
-5.5054e-05
-6.64229e-05
-2.6142e-05
5.73322e-06
2.55848e-07
6.16002e-05
6.36121e-06
7.61145e-05
2.1941e-05
3.79395e-05
4.01564e-05
2.09922e-06
-0.000376982
9.25598e-05
-0.000491935
8.36652e-05
-0.000570025
3.9017e-05
-0.00061076
-4.40841e-06
-0.000607659
-6.84693e-05
-0.000545536
-0.000117177
-0.000411924
-0.000159754
-0.000216902
-0.000194766
-2.37556e-05
-0.000186785
7.18291e-05
-7.36438e-05
6.46344e-05
4.73511e-05
6.67336e-05
-0.00063709
0.000245318
-0.000721577
0.000168153
-0.000779377
9.68165e-05
-0.000805982
2.21969e-05
-0.000809081
-6.53702e-05
-0.000762086
-0.000164172
-0.000638381
-0.000283459
-0.000462024
-0.000371123
-0.000246181
-0.000402628
-4.43518e-05
-0.000275473
3.39529e-05
-3.09536e-05
0.000100687
-0.000610689
0.000316197
-0.000671172
0.000228635
-0.000718654
0.000144299
-0.000763973
6.75155e-05
-0.000790336
-3.9007e-05
-0.000751259
-0.000203249
-0.000662747
-0.000371971
-0.00054812
-0.00048575
-0.000400922
-0.000549826
-0.000214528
-0.000461867
-5.72627e-05
-0.000188219
4.34238e-05
-0.000517936
0.000351691
-0.000552561
0.000263261
-0.000584103
0.000175841
-0.000629574
0.000112986
-0.000685247
1.66667e-05
-0.000669871
-0.000218626
-0.000604245
-0.000437596
-0.000505442
-0.000584553
-0.000380962
-0.000674306
-0.000239271
-0.000603558
-6.13877e-05
-0.000366102
-1.79638e-05
-0.000356597
0.000325985
-0.000340799
0.000247463
-0.000331179
0.000166221
-0.000387968
0.000169774
-0.00046932
9.8019e-05
-0.000516809
-0.000171137
-0.00049731
-0.000457096
-0.000429063
-0.0006528
-0.000340669
-0.000762699
-0.000212224
-0.000732004
-4.89069e-05
-0.000529419
-6.68708e-05
-0.000171846
0.000233748
-8.80756e-05
0.000163693
8.14983e-06
6.99959e-05
-4.30457e-05
0.00022097
-0.000120962
0.000175936
-0.000206943
-8.51563e-05
-0.000265314
-0.000398725
-0.000256477
-0.000661637
-0.000251536
-0.00076764
-0.000207401
-0.000776139
-8.67073e-05
-0.000650113
-0.000153578
-2.90818e-05
0.000106122
0.000130236
4.37457e-06
0.000285376
-8.51437e-05
0.000330556
0.00017579
0.0003102
0.000196292
0.000225778
-7.34807e-07
0.000161291
-0.000334237
9.27866e-05
-0.000593133
-3.11399e-06
-0.00067174
-8.67662e-05
-0.000692487
-8.00407e-05
-0.000656838
-0.000233619
7.73531e-05
-3.54133e-05
0.000230105
-0.000148377
0.000347505
-0.000202544
0.000466026
5.72695e-05
0.00052461
0.000137707
0.000551477
-2.76015e-05
0.000593179
-0.000375939
0.00054179
-0.000541744
0.000445297
-0.000575246
0.00030926
-0.00055645
0.000134063
-0.000481641
-9.95559e-05
0.000253329
-0.000207675
0.000334022
-0.00022907
0.000337919
-0.000206441
0.000405202
-1.00135e-05
0.000555228
-1.23187e-05
0.000742594
-0.000214967
0.000820042
-0.000453387
0.000770881
-0.000492583
0.000660045
-0.000464411
0.000485884
-0.000382289
0.000247237
-0.000242994
0.000147681
-3.25782e-05
3.25782e-05
-5.53025e-05
2.27243e-05
-6.20839e-05
6.78142e-06
-5.63693e-05
-5.71465e-06
-5.5141e-05
-1.22828e-06
-6.09379e-05
5.79693e-06
-6.00811e-05
-8.56857e-07
-7.67048e-05
1.66237e-05
-0.000141267
6.45621e-05
-0.00028343
0.000142163
-0.000459616
0.000176186
0.000142687
-0.000602303
-4.43885e-06
3.7017e-05
-1.56246e-05
3.39101e-05
-2.58577e-05
1.70145e-05
-3.94538e-05
7.88141e-06
-5.45977e-05
1.39157e-05
-9.16606e-05
4.28597e-05
-0.000159749
6.72319e-05
-0.000266956
0.000123831
-0.000397971
0.000195577
-0.00049732
0.000241511
-0.000573501
0.000252368
0.00023419
-0.000665004
3.35195e-05
3.49752e-06
4.18303e-05
2.55993e-05
3.48701e-05
2.39748e-05
1.46935e-05
2.8058e-05
-1.27471e-05
4.13563e-05
-6.65602e-05
9.66728e-05
-0.000155482
0.000156153
-0.000247326
0.000215675
-0.000326167
0.000274418
-0.000402177
0.000317521
-0.00049075
0.000340941
0.000334379
-0.000590939
5.28398e-05
-4.93423e-05
9.29272e-05
-1.44882e-05
0.000101787
1.51153e-05
8.97455e-05
4.00992e-05
6.44656e-05
6.66361e-05
1.86376e-05
0.000142501
-5.17418e-05
0.000226533
-0.000127225
0.000291158
-0.000216044
0.000363237
-0.000309868
0.000411344
-0.000396577
0.00042765
0.000421661
-0.000483859
5.84544e-05
-0.000107797
0.000127739
-8.37729e-05
0.000150356
-7.50115e-06
0.000154679
3.57763e-05
0.000138803
8.25117e-05
8.92811e-05
0.000192023
2.5938e-05
0.000289876
-5.10762e-05
0.000368172
-0.000137115
0.000449276
-0.000210695
0.000484925
-0.000267732
0.000484687
0.000479589
-0.00032566
7.48154e-05
-0.000182612
0.000152297
-0.000161254
0.000181892
-3.70967e-05
0.000169646
4.80231e-05
0.000136433
0.000115725
9.54776e-05
0.000232978
4.28322e-05
0.000342521
-3.24555e-05
0.00044346
-0.000104244
0.000521065
-0.00013461
0.00051529
-0.000143926
0.000494003
0.000495385
-0.000159722
7.6193e-05
-0.000258805
0.000130181
-0.000215243
0.000137929
-4.48446e-05
0.000108632
7.73197e-05
6.35001e-05
0.000160857
3.19971e-05
0.000264481
-1.61262e-05
0.000390645
-7.11669e-05
0.000498501
-9.93493e-05
0.000549247
-9.27685e-05
0.00050871
-6.32241e-05
0.000464458
0.000463311
-3.11503e-05
3.90366e-05
-0.000297842
4.4465e-05
-0.000220671
1.10158e-05
-1.13953e-05
-2.32623e-05
0.000111598
-5.82941e-05
0.000195889
-8.91193e-05
0.000295306
-0.000115576
0.000417102
-0.00012201
0.000504934
-9.7401e-05
0.000524638
-6.12541e-05
0.000472563
-9.48689e-06
0.000412691
0.00039705
5.67744e-05
-7.0905e-05
-0.000226937
-0.000126669
-0.000164907
-0.000167617
2.95532e-05
-0.000199871
0.000143851
-0.000197766
0.000193784
-0.000170533
0.000268073
-0.000140569
0.000387138
-0.000110236
0.000474601
-5.66396e-05
0.000471042
-1.84502e-06
0.000417768
5.22619e-05
0.000358584
0.000335013
0.000114299
-0.000157384
-6.95529e-05
-0.000244517
-7.77736e-05
-0.000265039
5.00748e-05
-0.000255741
0.000134553
-0.000237345
0.000175388
-0.000196935
0.000227662
-0.000142369
0.000332572
-6.79096e-05
0.000400142
2.48517e-05
0.00037828
9.82885e-05
0.000344331
0.000136277
0.000320596
0.000295814
0.000175476
-0.000131287
6.17345e-05
-0.000208753
-3.08228e-07
-0.000216614
5.79359e-05
-0.000224486
0.000142426
-0.000228022
0.000178924
-0.000188767
0.000188408
-0.000105775
0.000249579
8.53644e-06
0.000285831
0.000110859
0.000275958
0.00017825
0.00027694
0.000222935
0.000275911
0.000268521
0.000250227
-6.47589e-05
0.000126493
-0.000118791
5.3724e-05
-0.000102597
4.17422e-05
-8.32297e-05
0.000123058
-6.38115e-05
0.000159506
-3.23279e-05
0.000156924
2.29842e-05
0.000194267
0.000103718
0.000205097
0.000178974
0.000200702
0.000236633
0.000219281
0.000281123
0.000231422
0.00031857
0.000231074
-0.000734012
0.000131709
-0.000795844
6.18319e-05
-0.000775205
-2.06394e-05
-0.000682518
-9.26871e-05
-0.00052712
-0.000155397
-0.000322624
-0.000204497
-6.37572e-05
-0.000258866
0.000222369
-0.000286126
0.000462896
-0.000240527
0.000426069
3.68279e-05
0.00024317
0.000182899
0.00024317
-0.000731854
0.00019856
-0.000757428
8.74061e-05
-0.000717297
-6.07705e-05
-0.000619316
-0.000190669
-0.000487552
-0.000287161
-0.000323667
-0.000368381
-0.000123056
-0.000459478
0.000101625
-0.000510807
0.000297631
-0.000436534
0.000275542
5.89178e-05
0.000140581
0.000317859
0.000383751
-0.000667168
0.000274789
-0.000699409
0.000119647
-0.000669323
-9.0857e-05
-0.000577778
-0.000282214
-0.000463301
-0.000401638
-0.000351652
-0.00048003
-0.000238916
-0.000572214
-9.77532e-05
-0.00065197
8.9874e-05
-0.000624161
8.96923e-05
5.90996e-05
-2.16948e-06
0.000409721
0.000381582
-0.000559831
0.00035076
-0.00060267
0.000162487
-0.000588695
-0.000104832
-0.00051065
-0.000360259
-0.000414171
-0.000498116
-0.000337638
-0.000556563
-0.000291477
-0.000618376
-0.000218956
-0.00072449
-9.60641e-05
-0.000747053
-8.28007e-05
4.58362e-05
-0.000142324
0.000469244
0.000239258
-0.000390753
0.000415854
-0.000451098
0.000222832
-0.000462614
-9.33161e-05
-0.000407727
-0.000415146
-0.000330125
-0.000575719
-0.000278375
-0.000608314
-0.000285987
-0.000610764
-0.000259202
-0.000751275
-0.000164667
-0.000841588
-5.31732e-05
-6.56578e-05
-0.000121677
0.000537748
0.00011758
-0.000182635
0.000438766
-0.000215467
0.000255664
-0.000248658
-6.0125e-05
-0.000246391
-0.000417413
-0.000202283
-0.000619826
-0.000189679
-0.000620917
-0.000221837
-0.000578606
-0.000211624
-0.000761488
-0.000158622
-0.00089459
4.51082e-05
-0.000269388
5.1154e-05
0.000531702
0.000168734
7.55945e-06
0.000400057
2.78157e-05
0.000235408
4.34651e-06
-3.66559e-05
-2.64263e-05
-0.00038664
-7.70659e-05
-0.000569187
-0.000157645
-0.000540339
-0.000184405
-0.000551846
-0.000153336
-0.000792557
-0.000127394
-0.000920532
5.55487e-05
-0.00045233
8.87419e-05
0.000498509
0.000257476
0.00012023
0.000336601
0.000160752
0.000194885
0.000166069
-4.19722e-05
0.000130491
-0.000351063
2.64094e-06
-0.000441336
-0.000146901
-0.000390797
-0.000170776
-0.000527971
-0.000141268
-0.000822065
-0.000100776
-0.000961024
5.8908e-05
-0.000612014
9.41406e-05
0.000463276
0.000351617
0.000175106
0.000275794
0.000208453
0.000161539
0.000226946
-6.04653e-05
0.000182806
-0.000306923
1.69778e-05
-0.000275508
-0.000161302
-0.000212518
-0.000211231
-0.000478042
-0.000247048
-0.000786248
-0.000224502
-0.00098357
-2.62938e-05
-0.000810222
9.68083e-05
0.000340174
0.000448425
0.000229199
0.00022207
0.000245525
0.000145214
0.000243502
-5.84425e-05
0.000141391
-0.000204812
1.48064e-05
-0.000148924
-0.00012896
-6.87515e-05
-0.000306791
-0.00030021
-0.000442557
-0.000650483
-0.000447972
-0.000978154
-0.000233848
-0.00102435
-2.47234e-07
0.000106574
0.000448178
0.000263555
0.000208743
0.000270089
0.00013868
0.000208078
3.56892e-06
6.59704e-05
-6.27048e-05
1.87365e-05
-0.00010169
-7.342e-06
-4.2673e-05
-0.000224426
-8.3126e-05
-0.000458384
-0.000416525
-0.000524643
-0.000911895
-0.000395932
-0.00115306
-7.92213e-05
-0.000210137
0.000368957
0.000349699
0.000177613
0.000380664
0.000107715
0.000354721
2.95118e-05
0.000303512
-1.14958e-05
0.000152109
4.97129e-05
-1.10832e-05
0.00012052
-0.000120585
2.63759e-05
-0.000226587
-0.000310523
-0.000402601
-0.000735881
-0.000555855
-0.000999803
-0.00026693
-0.000499063
0.000102027
0.00074668
-3.6358e-05
-0.000631322
0.000725741
-4.75371e-05
0.000686517
-5.801e-05
0.000642002
-4.71346e-05
0.000617199
-1.80961e-05
0.000613634
6.15383e-06
0.000637776
1.01385e-05
0.000682139
2.37394e-06
0.000747163
-1.00664e-05
0.000811378
-3.22782e-05
0.000838743
-4.92528e-05
-7.29512e-05
0.000826667
0.000656105
-7.39802e-05
-0.000618483
0.00070317
-9.46015e-05
0.00073346
-8.82998e-05
0.000763533
-7.72084e-05
0.000810712
-6.5275e-05
0.000865216
-4.83501e-05
0.000911665
-3.63098e-05
0.000951546
-3.75079e-05
0.00097944
-3.79604e-05
0.000989945
-4.27831e-05
0.000983637
-4.29448e-05
-4.6937e-05
0.000957623
0.000762845
-0.000110488
-0.000726337
0.000767741
-9.94976e-05
0.00077576
-9.63186e-05
0.00079159
-9.30392e-05
0.000808743
-8.24273e-05
0.000825078
-6.46859e-05
0.000839234
-5.04653e-05
0.000852762
-5.10363e-05
0.000865478
-5.0676e-05
0.000878318
-5.56236e-05
0.000890616
-5.52427e-05
-5.19393e-05
0.000895619
0.00072427
-0.000709735
-0.000125022
0.000740883
-0.000116111
0.000754974
-0.00011041
0.000771105
-0.00010917
0.000794192
-0.000105514
0.000831265