/*--------------------------------*- C++ -*----------------------------------*\
| =========                 |                                                 |
| \\      /  F ield         | OpenFOAM: The Open Source CFD Toolbox           |
|  \\    /   O peration     | Version:  2212                                  |
|   \\  /    A nd           | Website:  www.openfoam.com                      |
|    \\/     M anipulation  |                                                 |
\*---------------------------------------------------------------------------*/
FoamFile
{
    version     2.0;
    format      ascii;
    arch        "LSB;label=32;scalar=64";
    class       surfaceScalarField;
    location    "1.5";
    object      phi.oil;
}
// * * * * * * * * * * * * * * * * * * * * * * * * * * * * * * * * * * * * * //

dimensions      [0 3 -1 0 0 0 0];

oriented        oriented;

internalField   nonuniform List<scalar> 
6392
(
3.59384e-05
-4.00353e-05
7.68932e-05
-3.66305e-05
0.000104829
-2.77015e-05
9.98574e-05
1.62548e-05
5.07453e-05
4.01007e-05
-0.000100807
0.000113423
-0.000375877
0.000283705
-0.0005755
0.000292088
-0.000660412
0.000218025
-0.000703185
0.000200805
-0.000694672
0.000164092
0.000141772
-0.000648403
2.85193e-05
-8.69596e-05
7.12182e-05
-7.69508e-05
8.47972e-05
-4.10428e-05
6.09697e-05
4.70982e-05
-5.8888e-05
0.000144142
-0.000226337
0.000269203
-0.000396436
0.000364266
-0.000530045
0.000342288
-0.000552674
0.000249269
-0.000588122
0.000273407
-0.00057716
0.000217809
0.000164407
-0.000554062
2.90318e-05
-0.000130573
7.72549e-05
-0.000112948
0.000103508
-2.62474e-05
0.000102244
0.000141797
6.70832e-05
0.000225986
-3.72619e-05
0.000340008
-8.29349e-05
0.000396755
-0.000100709
0.000348628
-0.000170726
0.000191293
-0.000344511
0.000244012
-0.000489819
0.000235253
0.000253196
-0.00048865
2.91272e-05
-0.000177403
7.71344e-05
-0.000140442
6.94202e-05
6.4462e-05
4.15686e-05
0.000232164
6.04228e-06
0.000197075
1.78076e-05
0.000141476
5.63253e-05
0.000140161
9.63086e-05
5.96088e-05
0.000108294
-9.12873e-05
2.82101e-05
-7.18137e-05
-0.00010867
-8.73755e-06
0.000141816
-0.000178488
3.73205e-05
-0.000230308
9.25074e-05
-0.000120018
4.29794e-05
0.000130295
-3.57779e-05
0.000161768
-9.54953e-05
4.24019e-05
-5.06237e-05
-7.08706e-05
1.61505e-05
-0.000127447
6.36835e-05
-0.000203525
0.000120815
-0.000273222
0.000186668
-0.00030065
0.000197946
-0.00029341
-0.000203286
0.000148951
6.06401e-05
-0.000261299
7.71408e-05
-6.35997e-05
1.1548e-05
0.000110608
-0.000105888
8.70007e-05
-0.000170397
-1.37926e-05
-0.000112178
-0.000105906
-2.61448e-05
-0.000173015
4.3362e-05
-0.000229639
9.97311e-05
-0.000265993
0.00016312
-0.000287766
0.000234975
-0.000313582
-0.000343212
0.000283455
6.73241e-05
-0.000195237
0.000102101
1.73876e-06
1.76575e-05
7.99162e-05
-0.000124419
3.71877e-05
-0.000166555
-2.72623e-05
-0.000108799
-7.92207e-05
-2.965e-05
-0.000133027
3.67422e-05
-0.000174402
8.35634e-05
-0.000195047
0.000121839
-0.000213534
0.000161385
-0.000238373
-0.000280328
0.000228292
9.26936e-05
-9.04219e-05
9.2798e-05
4.12433e-05
-1.87224e-05
6.45688e-05
-0.000121763
1.68089e-05
-0.000118661
-2.09456e-05
-5.33271e-05
-4.82458e-05
1.56369e-05
-8.77273e-05
8.22454e-05
-0.000122506
0.000135633
-0.000136778
0.00017822
-0.000163465
0.00021777
-0.000182796
-0.000214538
0.000257726
0.000137131
-2.02436e-05
8.42276e-05
2.66826e-05
-1.49796e-05
6.96162e-05
-6.08055e-05
3.52057e-05
-4.01086e-05
9.34357e-06
1.58121e-05
-1.58039e-05
7.65396e-05
-4.34482e-05
0.000137771
-7.31863e-05
0.000185525
-9.09669e-05
0.000228333
-0.000112064
0.000275766
-0.00013884
-0.000171024
0.000318338
0.000163768
3.2248e-05
8.57798e-05
3.9253e-05
4.13686e-06
8.91724e-05
-6.74308e-06
7.4243e-05
2.23613e-05
5.27347e-05
7.46031e-05
2.9577e-05
0.00013196
5.72727e-06
0.000189827
-1.24324e-05
0.000236317
-3.82723e-05
0.000274814
-5.30951e-05
0.000312278
-8.1162e-05
-0.000118298
0.000337614
0.000106232
0.000135706
6.71588e-05
0.000107101
6.18042e-05
9.83543e-05
7.93657e-05
8.65049e-05
0.00011031
8.26384e-05
0.000157841
7.04211e-05
0.000213847
4.88599e-05
0.00025999
3.92323e-05
0.000296304
2.63404e-05
0.000332625
1.39946e-05
0.000357486
-2.17995e-05
-6.29085e-05
0.000387315
0.000116333
0.00034532
9.8268e-05
0.000281972
0.000110703
0.000182037
0.000141344
0.000136495
0.000173922
0.000124732
0.000214287
0.000121886
0.000266027
0.000121863
0.000316107
0.000121475
0.00035532
0.000104528
0.000386861
8.74775e-05
0.000410961
4.09564e-05
0.000440532
5.73019e-06
-0.000564665
0.000114552
-0.000449844
9.36647e-05
-0.000306795
9.4274e-05
-0.000175686
0.000141291
-6.37868e-05
0.000203324
-6.38467e-06
0.00025543
9.22099e-05
0.000269986
0.00021553
0.000265815
0.000173031
0.000194239
6.55073e-05
0.000110496
2.94062e-05
8.22685e-05
9.78727e-05
-0.000496517
0.000121386
-0.00040543
7.73465e-05
-0.000262649
9.51014e-05
-9.77399e-05
0.000217706
2.55761e-05
0.00029394
0.000107094
0.000311006
0.00020415
0.00031273
0.000261542
0.000241224
0.000163399
0.000149577
4.04251e-05
0.000106407
1.38614e-05
6.7646e-05
9.05457e-05
-0.000442594
0.000198263
-0.000347854
0.000196371
-0.000177482
0.00022435
-4.76204e-05
0.000328856
1.53166e-05
0.000344723
0.000102529
0.000172171
0.000142703
0.0001504
9.09418e-05
0.00012284
3.13718e-05
5.91512e-06
1.63559e-05
4.29824e-05
1.44326e-05
4.8176e-05
8.17529e-05
-0.000196778
0.000139343
-0.000224163
0.000253169
-0.00015184
0.000307586
-4.56616e-05
0.000296961
1.46733e-05
0.000123007
5.83938e-05
-8.507e-05
9.37218e-05
-0.000113239
0.000111069
-9.9708e-05
6.39332e-05
-0.00013026
4.95995e-05
-6.57042e-06
3.57922e-05
4.33212e-05
9.96024e-05
5.07696e-05
-0.000157364
-8.54286e-05
-1.60136e-06
-0.000101218
0.000156459
-2.06878e-05
9.71809e-05
5.48033e-05
-0.000138987
0.000131567
-0.000205735
0.000199104
-0.000242218
0.000171608
-0.000249868
5.62331e-05
-0.000105717
3.04048e-05
4.18651e-05
6.36053e-09
5.88961e-05
9.02608e-05
0.000294396
-0.000341445
0.000200003
-0.000260115
6.50937e-05
-9.2207e-05
5.27822e-05
-9.13981e-05
0.000116385
-0.000143367
0.000202016
-0.000182975
0.000250959
-0.000218259
0.000149294
-0.00025556
-1.81589e-06
-3.46955e-05
-5.33113e-05
7.21756e-05
-6.45257e-05
5.96873e-05
1.36648e-05
0.000311041
-0.000303219
0.000323591
-0.000284331
0.000260306
-0.00022551
0.00022176
-0.0001616
0.000233703
-0.000117188
0.000245474
-0.000122228
0.000225642
-0.000146708
0.000118756
-0.000182723
-1.78862e-05
-0.000103886
-6.33973e-05
3.18223e-06
-7.73037e-05
7.11808e-05
-8.24226e-05
0.000305029
-0.000247321
0.000336049
-0.000261628
0.000332885
-0.000256311
0.000318493
-0.00020637
0.000311854
-0.000134894
0.000312647
-0.000112764
0.000311326
-0.000108765
0.000318735
-0.000117912
0.000241673
-0.000155165
5.85248e-05
-0.000117632
-2.42133e-05
9.01946e-05
-0.00012766
0.000349386
-0.000217745
0.00037641
-0.000255533
0.000390227
-0.000265046
0.000388426
-0.000247442
0.000387373
-0.000178506
0.000399836
-0.000141319
0.000404731
-0.000111803
0.000401857
-0.000116815
0.000395943
-0.000107634
0.000294521
-0.000146567
0.000125792
2.18882e-05
-5.78384e-05
0.000369013
-0.000171745
0.00041075
-0.000216053
0.000438108
-0.000232564
0.000457088
-0.000226805
0.000474417
-0.000185208
0.000488621
-0.000148335
0.000501439
-0.000126322
0.000508543
-0.000125912
0.000503782
-0.000111269
0.000452995
-0.000122106
0.000255398
-6.42813e-05
6.68283e-05
0.000433513
-0.000106911
0.000472814
-0.00013698
0.0005049
-0.00015528
0.00052691
-0.000150385
0.000546727
-0.000140611
0.000567847
-0.000121493
0.000587107
-0.00012445
0.000598892
-0.000128095
0.000608602
-0.000121029
0.000586369
-0.000101602
0.000414619
-0.000100573
0.000217094
0.000482089
-3.51968e-05
0.000521547
-6.38484e-05
0.00055391
-8.11845e-05
0.00058457
-8.62793e-05
0.00062039
-9.46871e-05
0.00065259
-9.6385e-05
0.000682385
-0.000113523
0.00070603
-0.000121026
0.000721626
-0.0001152
0.000729156
-7.63882e-05
0.000581115
-7.13535e-05
0.000333924
3.0448e-05
-1.87575e-05
5.52211e-05
-1.08878e-05
7.1196e-05
-4.77077e-06
7.87057e-05
6.69288e-06
7.98933e-05
7.87388e-06
7.88766e-05
1.00429e-05
7.6863e-05
9.76496e-06
6.95617e-05
2.66226e-05
-9.03731e-06
8.67353e-05
-0.000259234
0.000211567
-0.000643217
0.000377073
0.000379067
-0.000906261
2.28126e-05
-5.3537e-05
5.13103e-05
-3.68079e-05
6.16929e-05
-1.19147e-05
6.36939e-05
1.35711e-05
4.49033e-05
2.86308e-05
-2.47044e-06
5.57986e-05
-7.83153e-05
7.97371e-05
-0.000152967
0.000127871
-0.000317658
0.000269078
-0.000544007
0.000443012
-0.000718664
0.000494597
0.000441574
-0.000834389
2.66707e-05
-9.58175e-05
5.38796e-05
-6.04754e-05
6.10633e-05
-1.4295e-05
6.32358e-05
2.46804e-05
2.49811e-05
6.83239e-05
-4.7846e-05
0.000121967
-0.000141863
0.000159819
-0.000226025
0.000217273
-0.000349104
0.000399674
-0.000492794
0.000556266
-0.000610722
0.000568763
0.000512201
-0.000695973
3.13833e-05
-0.000146488
6.72245e-05
-8.83659e-05
6.08502e-05
-1.27569e-06
5.89923e-05
4.07289e-05
4.46668e-05
8.98423e-05
-7.75495e-06
0.000171909
-9.23352e-05
0.000233159
-0.000187658
0.000298055
-0.000292437
0.000488556
-0.00038285
0.000619598
-0.000455854
0.000612776
0.000553893
-0.000500955
2.44844e-05
-0.000186987
6.19801e-05
-0.000104496
6.1383e-05
1.17659e-05
6.6385e-05
4.25758e-05
6.76443e-05
9.87234e-05
3.76533e-05
0.00021144
-2.84461e-05
0.000300748
-0.000120109
0.000395589
-0.000206731
0.00055618
-0.000259521
0.000643406
-0.000292092
0.000631379
0.000576419
-0.00030258
-5.72379e-06
-0.000190206
7.37261e-06
-8.89527e-05
2.49756e-05
1.15048e-05
4.98672e-05
4.15186e-05
4.98506e-05
0.00014331
3.18402e-05
0.000271409
-3.24436e-05
0.000398756
-0.000107222
0.000497837
-0.000148752
0.000600786
-0.000157935
0.000642845
-0.000175927
0.000623849
0.000577283
-0.000183883
-5.87056e-05
-0.000137831
-8.1737e-05
-3.95028e-05
-9.09787e-05
4.70079e-05
-8.45875e-05
7.82013e-05
-7.32289e-05
0.000201175
-7.3364e-05
0.000329431
-0.000111473
0.000477144
-0.000122999
0.000549019
-0.000110397
0.00062037
-9.32789e-05
0.000639861
-7.76162e-05
0.000619851
0.000571444
-7.82718e-05
-9.17726e-05
-5.20405e-05
-0.000138495
3.01037e-05
-0.000181368
0.00011646
-0.000187862
0.000139691
-0.000157445
0.000249117
-0.000131093
0.000369511
-0.000114142
0.000491972
-9.5032e-05
0.000549928
-6.42707e-05
0.00060586
-2.41313e-05
0.000620883
2.48502e-06
0.000618954
0.000589047
5.79276e-06
-0.000106912
5.22467e-05
-0.000207621
0.000160709
-0.000251124
0.00019827
-0.000243838
0.000200548
-0.000194457
0.000289313
-0.000136434
0.000396453
-8.50186e-05
0.000493645
-3.39155e-05
0.000517505
1.6817e-05
0.000553979
6.74554e-05
0.000558893
0.000120823
0.000564141
0.000575261
0.000143945
-0.000189802
0.000240787
-0.000232236
0.000230596
-0.000276349
0.000270929
-0.000298298
0.00027683
-0.000252857
0.000333304
-0.000160671
0.000411376
-6.78623e-05
0.000499869
8.90952e-06
0.000486811
8.87175e-05
0.00049922
0.000167754
0.000493107
0.000241036
0.000496734
0.000507002
0.000292617
-0.000199172
0.000452345
-0.000232318
0.000398786
-0.000286082
0.000415184
-0.000300751
0.000312426
-0.000254109
0.00032284
-0.000176012
0.000390575
-8.6356e-05
0.000465684
1.45709e-05
0.000422113
0.00012613
0.000408223
0.000224781
0.000398744
0.000312644
0.000417389
0.000407628
0.000403936
0.000267572
0.000466343
9.42269e-05
0.000532346
-0.00017788
0.000487236
-0.000263086
0.00040868
-0.000178233
0.000482232
-0.000158424
0.000463558
-3.2224e-05
0.000373979
9.37661e-05
0.000316987
0.000222395
0.000298314
0.000333624
0.000293555
0.000435689
0.000302144
0.00051614
0.000283392
-0.00100599
0.000272856
-0.00104757
0.000212458
-0.00100211
0.000139301
-0.000922484
9.98553e-05
-0.000824787
7.2912e-05
-0.000736255
5.30795e-05
-0.000652942
2.73079e-05
-0.000561536
-4.24517e-06
-0.000445534
-3.96724e-05
-0.000282802
-6.75585e-05
-0.000155321
-8.36076e-05
-2.51679e-05
-0.000883116
0.000321251
-0.000887228
0.000227416
-0.000827431
0.000123937
-0.00071771
6.30116e-05
-0.000630283
4.92352e-05
-0.000572508
4.624e-05
-0.000526928
1.84546e-05
-0.000470656
-2.44246e-05
-0.000396699
-7.3989e-05
-0.00027442
-0.000107561
-0.0001511
-0.000132038
-1.66446e-05
-0.00071898
0.000391198
-0.000683659
0.000266121
-0.00061825
0.000120605
-0.000552354
3.59307e-05
-0.000506124
8.86126e-06
-0.000480534
6.30525e-06
-0.000456331
-3.00067e-05
-0.000417563
-8.00188e-05
-0.000357509
-0.000135424
-0.00026302
-0.000170976
-0.000145156
-0.000190082
-5.53709e-05
-0.00049494
0.000434216
-0.000450207
0.000281176
-0.000404373
0.000116132
-0.000381899
2.33311e-05
-0.000383736
-2.8482e-05
-0.000407719
-5.38279e-05
-0.000407368
-9.62857e-05
-0.000381074
-0.00014643
-0.000328792
-0.000196611
-0.000246301
-0.000235498
-0.000144519
-0.000248862
-0.00015805
-0.000288332
0.000465411
-0.000257152
0.000312369
-0.000236782
0.000164241
-0.000234886
5.77432e-05
-0.000273051
-1.99128e-05
-0.000350497
-7.5797e-05
-0.000389262
-0.000128637
-0.000365943
-0.000182018
-0.000304309
-0.000232119
-0.000210389
-0.000277866
-0.000118727
-0.000291426
-0.000235648
-0.000170805
0.00048251
-0.000152111
0.000336149
-0.000143552
0.000189443
-0.000138414
6.80841e-05
-0.00014665
-1.87576e-05
-0.00023191
-8.37386e-05
-0.000332114
-0.000135902
-0.000341229
-0.000195682
-0.000291188
-0.000247826
-0.000180737
-0.000303487
-5.87458e-05
-0.000322569
-0.00027227
-8.8806e-05
0.000514225
-8.37782e-05
0.000385601
-6.18555e-05
0.000217148
-3.51332e-05
7.06825e-05
-1.36071e-05
-1.97249e-05
-3.32478e-05
-8.65765e-05
-0.000166577
-0.000120227
-0.000286138
-0.000166007
-0.000263953
-0.000207795
-0.000148617
-0.000272461
-4.56868e-06
-0.000309704
-0.000289673
5.12037e-06
0.000543767
1.1323e-05
0.000430341
5.26783e-05
0.000247184
0.000120014
8.09804e-05
0.000160649
-1.83794e-05
0.000168853
-7.99877e-05
0.000109377
-9.2697e-05
-4.81533e-05
-8.40641e-05
-0.000142595
-8.82623e-05
-6.14628e-05
-0.000161677
6.32418e-05
-0.000218877
-0.000291385
0.00012968
0.000543116
0.000123522
0.000452531
0.000178595
0.00029301
0.000270478
0.000125291
0.000321896
5.74036e-05
0.000318046
4.94504e-05
0.000292985
6.83212e-05
0.000228628
7.9424e-05
0.000183485
5.32087e-05
0.000228868
-5.08064e-05
0.000218938
-0.000124282
-0.000256156
0.000296939
0.000519582
0.000285623
0.000475684
0.000310348
0.00037803
0.000352684
0.000264393
0.000373267
0.000240219
0.000366744
0.000256884
0.000349483
0.000249655
0.000330261
0.000181531
0.000352985
0.000106861
0.000408167
-2.43373e-06
0.000344081
-7.94481e-05
-0.000182417
0.000447707
0.00045327
0.000449162
0.000429042
0.000457389
0.000367687
0.000461788
0.000329263
0.000461642
0.000304037
0.000465089
0.000281154
0.000491968
0.000216888
0.000534225
0.000135018
0.000555244
6.5537e-05
0.000542874
4.49989e-06
0.000452829
-5.93116e-05
-4.02413e-05
0.000564813
0.00034656
0.000580264
0.000345066
0.000576695
0.000311562
0.000576898
0.000283654
0.000581502
0.000256887
0.000602503
0.000221213
0.000633737
0.000161783
0.000644491
0.000125271
0.00063157
6.89397e-05
0.000583614
4.12189e-05
0.000482197
1.05172e-05
0.000119016
3.5537e-05
2.28676e-06
8.14088e-05
1.30611e-05
0.000104949
1.42225e-05
0.000123713
1.55364e-05
0.000136687
1.8173e-05
0.000134093
3.15275e-05
0.000110136
4.67965e-05
7.19149e-05
5.29248e-05
2.85369e-05
5.41966e-05
1.89627e-06
4.64319e-05
-3.5467e-06
3.6479e-05
2.86526e-05
-4.74054e-07
-1.16793e-05
-3.22062e-05
4.92298e-05
-2.8421e-05
7.34199e-05
-1.07799e-05
0.000102914
-6.622e-06
0.000127172
9.1899e-06
0.000138649
4.19882e-05
0.000118225
7.85693e-05
6.84095e-05
9.67676e-05
1.74754e-05
9.23149e-05
-1.69163e-05
7.13134e-05
-4.53833e-05
5.01657e-05
3.35412e-05
-6.4991e-05
-2.35059e-05
-5.10695e-05
3.73659e-05
-6.26026e-05
5.3532e-05
-2.42657e-05
8.06611e-05
-2.53809e-05
0.000110801
-1.89083e-07
0.00013953
5.32385e-05
0.000138578
0.000107611
0.000112092
0.000139006
7.23733e-05
0.000133892
3.35969e-05
0.000103228
-6.2396e-06
6.95767e-05
4.30421e-05
-4.14978e-05
-2.56654e-05
-5.38899e-05
6.15013e-06
-6.15768e-05
3.2426e-05
-2.88344e-05
6.49474e-05
-3.16854e-05
8.38676e-05
1.45541e-05
0.000109762
8.1728e-05
0.000117865
0.00015556
0.000107535
0.000187158
8.12083e-05
0.000173405
4.72078e-05
0.000140755
-3.57606e-06
0.000102482
7.73582e-05
-7.33439e-05
-2.95586e-05
-4.16511e-05
-1.12466e-05
-4.57695e-05
2.10411e-05
-3.90717e-05
5.68834e-05
-3.10737e-05
5.05577e-05
3.19428e-05
5.56209e-05
0.000113366
6.44997e-05
0.000225165
6.5231e-05
0.000249902
5.00436e-05
0.000220824
1.44195e-05
0.000180744
-5.33256e-05
0.000155803
0.000177015
-0.000121272
-1.4368e-05
-3.58889e-05
-7.74656e-07
-4.04468e-05
1.20376e-05
-2.48364e-05
2.27168e-05
-1.24751e-05
-9.60347e-06
4.31866e-05
-3.46987e-05
0.000157663
-2.51624e-05
0.000288634
-7.57109e-06
0.000294606
-9.50781e-06
0.000252911
-3.8773e-05
0.000220027
-8.67234e-05
0.000248474
0.00028623
-9.4231e-05
-8.00968e-06
-1.45366e-05
3.00618e-06
-1.67193e-05
2.82342e-06
1.92157e-05
-1.75691e-05
2.79243e-05
-8.3462e-05
9.01272e-05
-0.000108437
0.000226023
-9.26144e-05
0.000331601
-8.29283e-05
0.000314438
-8.74164e-05
0.000276799
-9.97828e-05
0.000285225
-7.47591e-05
0.000337124
0.000338564
-6.52823e-06
-3.03405e-05
3.25925e-05
-3.17722e-05
2.79528e-05
-2.83462e-05
6.48814e-05
-6.79656e-05
8.01742e-05
-0.000151685
0.000151767
-0.00018565
0.000277752
-0.000189624
0.000364625
-0.000193363
0.000328804
-0.000189268
0.000298192
-0.000146505
0.000343962
-5.12112e-05
0.000385546
0.000357692
6.70885e-05
-4.17585e-05
0.000142153
-7.0315e-05
8.08655e-05
-7.26494e-05
7.52264e-05
-0.000116211
5.9003e-05
-0.000193813
0.000104771
-0.000240175
0.00020713
-0.000260177
0.000334989
-0.000275497
0.000331838
-0.000259351
0.000314046
-0.000175023
0.000375415
-4.08123e-05
0.00041572
0.000369869
9.98064e-05
-2.80997e-05
0.000190627
0.000113614
9.78993e-05
0.000323932
3.37225e-05
0.000423665
-2.827e-05
0.000345426
-3.17989e-06
7.12597e-05
5.8496e-05
-0.000223348
0.000163089
-0.000368496
0.000209072
-0.000337387
0.000237548
-0.000220356
0.000354381
-5.26436e-05
0.000379204
0.000359069
0.000108711
0.000516117
0.000120812
0.000532851
7.83056e-05
0.000585324
2.26694e-05
0.000652203
-3.87178e-05
0.000685869
-2.87307e-05
0.000634122
2.11191e-05
0.00042382
9.31592e-05
0.000112447
0.000159822
-0.000195845
0.000188826
-0.000290669
0.000258235
-5.59895e-05
0.000223286
0.000179151
0.000114304
0.000645111
0.000122969
0.00065156
0.000106264
0.000661176
9.31172e-05
0.000697208
6.68842e-05
0.000746446
5.5003e-05
0.000782395
9.18342e-05
0.000778989
0.000161221
0.000710525
0.000201726
0.000442176
0.000234168
0.000239429
0.000249062
0.000324655
0.00015035
0.000416091
-5.24767e-07
4.77682e-06
1.71046e-05
1.80346e-05
7.81885e-06
3.37172e-05
9.81005e-06
5.32929e-05
1.09166e-05
7.3036e-05
1.55826e-05
8.79131e-05
2.47091e-05
7.96872e-05
4.31155e-05
2.48026e-05
7.71199e-05
-2.73453e-05
7.46426e-05
-3.76997e-05
4.9951e-05
-1.86157e-05
1.25897e-05
1.92542e-05
-6.79845e-05
8.46921e-06
-4.52921e-05
-1.03982e-05
-1.23773e-05
2.9855e-06
2.50238e-05
2.31635e-05
5.42257e-05
4.23177e-05
5.99647e-05
6.30066e-05
6.34385e-05
6.39359e-05
5.54339e-05
8.583e-05
3.31163e-05
8.77727e-05
2.00941e-05
6.50654e-05
4.16136e-05
2.90332e-05
4.38827e-05
-6.76321e-05
2.58199e-05
-5.76761e-05
7.11131e-06
-4.44926e-06
2.07286e-05
4.3941e-05
5.08475e-05
4.30638e-05
7.49055e-05
1.93843e-05
8.05209e-05
2.42668e-05
7.28574e-05
5.04463e-05
9.21613e-05
7.50802e-05
0.000116441
8.04157e-05
0.000106988
0.000110236
8.14107e-05
9.41628e-05
-0.000120649
0.000103511
-0.000101263
0.000112913
-4.24676e-05
0.000106871
-1.68666e-05
0.00013188
-3.48132e-06
0.000124575
4.97601e-05
0.000107209
6.46552e-05
0.000123157
5.19491e-05
0.000160163
8.15316e-05
0.000158746
0.000116588
0.000158348
0.0001588
0.000154415
0.00015307
-0.000147649
0.000214134
-0.000113505
0.000231825
-7.33092e-05
0.000221194
-4.16169e-05
0.000222877
4.97584e-05
0.00021041
0.000107297
0.000215533
4.05316e-05
0.000263374
-4.20585e-05
0.000213819
-1.40173e-05
0.000122196
5.05014e-05
9.55626e-05
0.000126322
0.000185673
0.000199114
-5.22894e-05
0.000288499
-1.28536e-05
0.000305206
1.18057e-05
0.000300897
5.72472e-05
0.000300873
9.65144e-05
0.000335133
1.94243e-05
0.000367559
-0.000127438
0.000297509
-0.000184252
0.000142501
-0.000134633
8.21301e-06
-3.08335e-05
-3.76752e-05
6.41001e-05
9.81392e-05
0.000163089
5.17892e-05
0.000319511
7.00029e-05
0.000360054
9.62125e-05
0.000369315
0.000142487
0.000418514
9.51149e-05
0.000470945
-9.52975e-05
0.000432534
-0.000251235
0.000197777
-0.000253969
2.80173e-05
-0.0001749
-8.85651e-05
-7.98576e-05
-0.000133139
2.52518e-05
-5.72482e-05
7.24173e-05
0.000154065
0.000317357
0.000184338
0.00035481
0.00020157
0.000405838
0.000183519
0.000520967
1.57764e-05
0.000566188
-0.000265564
0.000386502
-0.000397917
0.000136252
-0.000332158
-5.01635e-05
-0.00020347
-0.00014599
-7.52553e-05
-0.000222034
4.13457e-05
-0.000202024
-3.36416e-05
0.000219048
0.000321131
0.000271595
0.000317151
0.000306315
0.000366897
0.000242188
0.000590749
-0.000134229
0.000621068
-0.000485974
0.00033427
-0.000515987
0.000116507
-0.000425638
-7.41297e-05
-0.000279206
-0.000180242
-0.000108809
-0.000262835
4.04319e-05
-0.000267771
-0.000117432
0.000248045
0.000345387
0.000345742
0.000296561
0.000387905
0.000307555
0.000221157
0.000638241
-0.000242871
0.000645354
-0.000561655
0.000289416
-0.000517067
3.59738e-05
-0.000404377
-5.2982e-05
-0.000279584
-0.000160394
-0.000109565
-0.000216769
5.29789e-05
-0.000260367
-0.000155845
0.000238332
0.000218093
0.000382199
0.000231814
0.000486817
0.000251669
0.00023391
0.000662936
-0.000237347
0.000656227
-0.000300414
0.000252977
-0.000101162
-6.11892e-06
3.94989e-05
-3.02109e-05
0.000164589
-0.000104842
0.000218239
-0.000144469
0.000239139
-0.000185239
-9.72386e-05
0.000415297
-4.90437e-06
0.000457801
4.80228e-05
0.000533809
0.000146712
0.000295663
0.000696683
-8.75556e-05
0.000718377
1.5878e-05
0.00040886
0.00032851
0.000142114
0.00042584
3.33149e-05
0.00045217
-5.4103e-05
0.000449982
-9.17321e-05
0.000417266
-9.19188e-05
1.0572e-05
-2.22991e-05
4.69077e-05
-4.18308e-05
3.77635e-05
-4.58971e-05
2.13959e-05
-3.73603e-05
6.65847e-06
-3.38046e-05
9.44269e-06
-4.15188e-05
1.91965e-05
-4.48277e-05
1.49454e-05
-6.13765e-05
3.34692e-05
-0.00011415
8.01974e-05
-0.000252658
0.000157963
-0.000431154
0.000198924
0.000168452
-0.000554386
7.79617e-06
5.10217e-05
-1.91845e-06
4.49267e-05
-5.78563e-06
2.39431e-05
-1.20017e-05
1.00215e-05
-2.26863e-05
1.32102e-05
-5.76179e-05
4.51198e-05
-0.000126817
7.39296e-05
-0.000233479
0.000133944
-0.000352644
0.000212378
-0.000438714
0.000255814
-0.000517389
0.000257464
0.000236675
-0.000582283
4.03424e-05
2.37108e-05
4.54618e-05
3.50906e-05
4.59552e-05
2.143e-05
3.95531e-05
1.61408e-05
2.19157e-05
2.6772e-05
-2.75108e-05
8.19644e-05
-0.000113637
0.000146995
-0.000208203
0.000211085
-0.000295331
0.000276934
-0.000368869
0.000322415
-0.000447367
0.000333375
0.000321402
-0.000516462
3.93572e-05
-3.15696e-05
7.61998e-05
-1.05131e-05
9.29755e-05
1.91648e-06
9.85661e-05
1.54467e-05
8.81075e-05
3.97786e-05
4.96618e-05
0.00011492
-1.89965e-05
0.000204174
-9.7925e-05
0.000271497
-0.000192649
0.000349696
-0.000285946
0.000404928
-0.000361413
0.000415358
0.000405046
-0.000422391
2.71293e-05
-8.83586e-05
9.74982e-05
-8.19236e-05
0.000130687
-2.64119e-05
0.000151048
7.40575e-06
0.000148985
5.16006e-05
0.000112345
0.000158882
5.4933e-05
0.000260276
-1.87385e-05
0.000349735
-0.000109063
0.000439587
-0.00019333
0.000482301
-0.000257646
0.000483888
0.000476687
-0.000311683
3.03921e-05
-0.000154634
0.000115241
-0.000154622
0.000157789
-5.18484e-05
0.000159535
2.76884e-05
0.000143299
9.26285e-05
0.000122898
0.00020794
7.25124e-05
0.000330804
-4.14972e-06
0.000387113
-7.3975e-05
0.000417146
-0.000115995
0.000450116
-0.000156232
0.000529156
0.000527797
-0.000192538
2.90912e-05
-0.000213655
9.42962e-05
-0.000195157
0.000119097
-4.21639e-05
0.000108049
7.73115e-05
8.21896e-05
0.000173979
5.35547e-05
0.000264417
1.65176e-05
0.000317415
-1.9098e-05
0.000294108
-1.50677e-05
0.000225604
-3.06891e-05
0.000252254
-7.18396e-05
0.00038434
0.000466411
-8.65613e-05
-1.48314e-06
-0.000227059
1.68344e-05
-0.000174915
1.53861e-05
2.99535e-05
-1.07935e-05
0.000152313
-1.59385e-05
0.000210205
-2.84259e-05
0.000212358
3.00933e-06
0.000124801
4.85765e-05
2.86444e-05
9.31049e-05
-4.76307e-05
0.000102282
-2.74468e-05
8.06808e-05
8.90301e-05
0.000246893
4.65347e-05
-8.48371e-05
-0.000158396
-0.00012266
-8.54113e-05
-0.000114016
5.3091e-05
-8.06796e-05
0.000111599
-8.11794e-06
8.949e-05
7.77505e-05
-2.6978e-05
0.000143607
-0.00013187
0.000198384
-0.000188028
0.000246879
-0.000216996
0.000262942
-0.000211063
0.000242279
-0.000144496
-1.44297e-05
0.000205755
-6.90777e-05
-3.8981e-05
-7.67149e-06
-3.64685e-05
0.000121398
-4.17134e-05
0.000219249
-6.09806e-05
0.000275497
-9.18878e-05
0.000306208
-0.000164532
0.00032625
-0.000206315
0.000347343
-0.000222512
0.000376449
-0.00023184
0.000398204
-0.000234108
0.000388452
-0.000228568
-0.000177992
0.000352213
0.000494894
1.42927e-05
0.000512207
-1.77261e-05
0.000549125
-7.65166e-05
0.000562514
-0.000101385
0.000544095
-0.000102074
0.000509978
-0.000117349
0.000488461
-0.00014056
0.000486871
-0.000157163
0.000497495
-0.000160806
0.000505849
-0.000165363
0.000503096
-0.000181405
-0.000192663
0.000482698
0.000669529
1.1251e-05
0.000662565
4.92784e-07
0.000656951
-2.47269e-05
0.000658926
-3.63017e-05
0.000657524
-2.82629e-05
0.000641964
-2.32589e-05
0.000619555
-3.33581e-05
0.000601619
-5.11109e-05
0.000590707
-6.23841e-05
0.000589223
-7.3681e-05
0.000591526
-9.03959e-05
0.000591214
-0.000111297
-0.000634512
0.000157617
-0.000657113
0.0001033
-0.000616874
3.69539e-05
-0.000526918
-2.45067e-05
-0.000404602
-8.41265e-05
-0.000254667
-0.00013077
-7.25894e-05
-0.000173456
0.000118768
-0.000200951
0.000307376
-0.00017258
0.00033592
7.54569e-06
0.000245692
0.000112075
0.000193078
-0.000617292
0.000202439
-0.000621647
0.00012844
-0.000577405
2.84987e-05
-0.000502122
-6.83302e-05
-0.000402328
-0.000148697
-0.000269754
-0.00020308
-8.16151e-05
-0.000236435
7.77069e-05
-0.000230086
0.000219375
-0.000180532
0.000261291
-1.10026e-05
0.000220506
0.000213465
0.000263804
-0.000557219
0.000277223
-0.000570018
0.000184669
-0.000539998
5.15025e-05
-0.000473298
-8.58747e-05
-0.000369633
-0.000184209
-0.000230745
-0.000205659
-5.83388e-05
-0.000174339
3.71265e-05
-0.000158693
9.40252e-05
-0.000147628
0.000123196
-9.78052e-05
0.000158824
0.000278822
0.000295053
-0.00046758
0.000355632
-0.000498461
0.000242462
-0.000492276
7.20843e-05
-0.000434468
-0.000109499
-0.000308422
-0.000211397
-0.00015015
-0.000171965
-1.83632e-05
-0.000102449
-1.34917e-05
-0.000118373
-5.2531e-05
-0.000179375
5.34338e-05
-0.000175652
0.000174281
0.000305264
0.000311074
-0.000365541
0.000430506
-0.000413524
0.000311461
-0.000424173
0.000100242
-0.000385119
-0.000135756
-0.000246721
-0.000236721
-0.000111461
-0.000135756
-0.000103537
-8.40963e-05
-0.000194413
-0.000146878
-0.000158908
-0.000259707
8.4794e-05
-0.000159974
0.000235398
0.000280556
0.000307044
-0.00022696
0.000484977
-0.000274427
0.000365071
-0.000313521
0.000127048
-0.000298741
-0.000152889
-0.000210933
-0.000263493
-0.00015723
-0.000123863
-0.000212074
-8.19964e-05
-0.0002799
-0.000179124
-0.000125106
-0.000299719
0.000181366
-3.62752e-05
0.000319257
0.000182877
0.000293333
-0.000101595
0.000514324
-0.000128476
0.000395661
-0.000157693
0.000175797
-0.000146067
-0.000117381
-0.000130308
-0.000224811
-0.000145959
-7.85289e-05
-0.000203798
-2.4057e-05
-0.000248145
-0.00010321
-6.08974e-05
-0.000329835
0.000174563
-6.73071e-05
0.000293918
0.00013073
0.000308552
2.44045e-05
0.000376629
3.3585e-05
0.000401666
3.26393e-05
0.000228552
2.57619e-05
-4.38734e-05
-2.94627e-05
-7.71435e-05
3.28005e-05
6.46944e-05
6.54976e-05
0.000186306
-9.58129e-05
0.000168684
-9.38298e-05
-0.000370353
4.09904e-05
-0.000267473
0.000231764
2.39963e-05
0.000349668
0.000167963
0.000114135
0.000136843
0.000251145
0.000155639
0.000203718
0.000144628
9.38609e-05
3.23847e-05
0.000222787
6.10406e-05
0.000302115
0.00018286
0.000282064
3.11351e-05
0.000259402
-4.74697e-05
-0.000355812
-3.92861e-06
-0.000370923
0.0001735
-0.000111981
0.000392445
0.000311334
-8.15771e-05
0.000271558
1.17566e-05
0.00024815
0.000148802
0.000161041
0.000364497
-4.71138e-05
0.000443188
-0.000146595
0.000348967
-5.14982e-05
9.19194e-05
-8.8185e-05
2.76831e-05
-0.000138013
-0.000242635
-7.70089e-05
-0.00035739
0.000133283
-3.38638e-05
0.000399957
0.000446452
-0.000161915
0.000360067
-0.000118467
1.40724e-05
4.77661e-05
-0.000361867
0.000550087
-0.000482523
0.00050271
-0.000489174
0.000302852
-0.000383282
0.000133444
-0.000311472
2.4175e-05
-0.000296894
-0.000144748
-8.03125e-05
-0.000313808
0.000222519
2.07028e-05
0.000402114
0.000577028
-0.000124601
0.000538282
-0.000118445
0.00018788
-6.67257e-05
-0.000369052
0.000349997
-0.000625574
0.000662315
-0.000652612
0.000581285
-0.000629829
0.000540986
-0.000608132
0.000386764
-0.000591692
0.000143758
-0.000320335
-2.93287e-05
0.000122673
0.000154332
0.000466587
0.000418949
0.00044278
-0.000420745
0.000318352
0.000363925
0.000254442
0.000272336
0.000244788
0.000234427
0.000251493
0.000214379
0.000281265
0.000203533
0.000330483
0.000197178
0.000376124
0.00018635
0.000415743
0.000161329
0.000458474
0.000136478
0.00049247
9.78287e-05
6.89045e-05
0.000527595
0.000478908
0.000186434
-0.000379325
0.00052331
0.000110917
0.000533027
8.6872e-05
0.000519819
0.000100207
0.000506434
0.000130725
0.000504185
0.000149625
0.000514838
0.000146657
0.000537944
0.000128666
0.000565528
0.000118369
0.000594029
0.00010306
0.00062092
7.82611e-05
5.41494e-05
0.000647523
0.000734259
-0.000145694
-0.000715335
0.000747309
-0.000163829
0.000752529
-0.000175011
0.000748671
-0.00015785
0.000744692
-0.000121798
0.000749965
-8.73692e-05
0.000759907
-6.72782e-05
0.00076931
-6.24457e-05
0.000779232
-6.08464e-05
0.000790027
-5.49335e-05
0.000799843
-5.34373e-05
-5.00116e-05
0.000807033
0.000801196
-0.000782641
-0.000289803
0.000826877
-0.000287192
0.000853278
-0.000290643
0.000879357
-0.000285817
0.000905324
-0.000276229
0.000930701
-0.000252213
0.000951431
-0.000225177
0.00096411
-0.00018722
0.000969626
-0.000137509
0.000971746
-7.99395e-05
0.000968932
-7.77493e-05
0.000958899
-6.63694e-05
0.000564085
2.33473e-05
0.000600254
-1.19306e-05
0.00063946
-2.85076e-05
0.000674831
-5.4524e-05