/*--------------------------------*- C++ -*----------------------------------*\
| =========                 |                                                 |
| \\      /  F ield         | OpenFOAM: The Open Source CFD Toolbox           |
|  \\    /   O peration     | Version:  2212                                  |
|   \\  /    A nd           | Website:  www.openfoam.com                      |
|    \\/     M anipulation  |                                                 |
\*---------------------------------------------------------------------------*/
FoamFile
{
    version     2.0;
    format      ascii;
    arch        "LSB;label=32;scalar=64";
    class       surfaceScalarField;
    location    "1.5";
    object      phi.air;
}
// * * * * * * * * * * * * * * * * * * * * * * * * * * * * * * * * * * * * * //

dimensions      [0 3 -1 0 0 0 0];

oriented        oriented;

internalField   nonuniform List<scalar> 
6392
(
4.24277e-05
-4.24277e-05
7.82244e-05
-3.57967e-05
0.000103929
-2.57051e-05
8.50182e-05
1.89113e-05
4.37963e-05
4.12219e-05
-6.00833e-05
0.00010388
-0.000312766
0.000252682
-0.00056766
0.000254895
-0.000710262
0.000142601
-0.000808318
9.80553e-05
-0.000840967
3.26473e-05
-1.62509e-05
-0.000824718
4.10652e-05
-8.34928e-05
7.45026e-05
-6.92341e-05
8.13207e-05
-3.25232e-05
3.94801e-05
6.07519e-05
-6.72125e-05
0.000147914
-0.00025083
0.0002875
-0.000397548
0.000399408
-0.000501964
0.000359317
-0.000597439
0.00023807
-0.000668969
0.000169572
-0.000710992
7.46689e-05
-1.43514e-05
-0.000712892
4.74876e-05
-0.00013098
8.70062e-05
-0.000108753
0.000108901
-5.44179e-05
9.29499e-05
7.66995e-05
1.56202e-05
0.000225236
-0.000120144
0.000423375
-0.000242013
0.000521399
-0.00033529
0.0004527
-0.000419899
0.000323175
-0.000479038
0.000228805
-0.000518704
0.000113997
3.9662e-05
-0.000572789
5.17406e-05
-0.000182721
8.76478e-05
-0.00014466
0.000106322
-7.31022e-05
9.42778e-05
8.8621e-05
3.8611e-05
0.000281256
-2.82861e-05
0.000491289
-9.40882e-05
0.000587973
-0.00014697
0.000506226
-0.000190517
0.000367773
-0.000186692
0.000227617
-0.000215091
0.00014546
5.35341e-05
-0.000229292
6.44372e-05
-0.000247158
0.000100783
-0.000181005
0.000117109
-8.94545e-05
0.000108232
9.78997e-05
8.28108e-05
0.00030852
6.20432e-05
0.000512611
6.30422e-05
0.000587663
5.2437e-05
0.000517439
5.9482e-05
0.000360466
7.56689e-05
0.000211081
9.37593e-05
0.000129752
-1.86756e-05
0.00017127
7.60508e-05
-0.000323209
0.000109765
-0.000214709
0.000115328
-9.47729e-05
9.9677e-05
0.000115077
7.24231e-05
0.00033638
7.43383e-05
0.000509688
9.77445e-05
0.000564062
0.000117131
0.00049786
0.000151982
0.000325149
0.0002067
0.000155218
0.000294702
3.90536e-05
-9.03806e-05
0.000366755
5.94132e-05
-0.000382626
7.09822e-05
-0.00022636
4.72621e-05
-7.11216e-05
2.87907e-05
0.000135174
1.49572e-05
0.000349942
4.23266e-05
0.000481554
0.000107122
0.000498902
0.000165579
0.000439038
0.000211174
0.000279189
0.000251907
0.000114081
0.000299115
-8.8236e-06
-0.000164325
0.000371679
-3.31387e-06
-0.000379364
-6.0254e-05
-0.000169986
-0.000114509
-1.70553e-05
-0.000102722
0.000124237
-4.41881e-05
0.000290898
3.26203e-05
0.000404343
0.000118476
0.000412702
0.000206094
0.000351052
0.000265729
0.00021922
0.000298918
8.05943e-05
0.000329694
-3.98989e-05
-0.000173409
0.000338438
-7.57673e-05
-0.000303866
-0.000158383
-8.82394e-05
-0.000198975
2.33568e-05
-0.000160822
8.63052e-05
-5.45409e-05
0.000184401
7.05463e-05
0.00027902
0.000161192
0.000321725
0.000250676
0.000261237
0.000304088
0.000165508
0.000319374
6.50093e-05
0.000316673
-3.74986e-05
-0.000149217
0.000292187
-0.000139931
-0.0001645
-0.000201699
-2.7282e-05
-0.000198058
1.95091e-05
-0.000146235
3.43357e-05
-5.79448e-05
9.59408e-05
7.24301e-05
0.000148418
0.000181505
0.000212318
0.000259079
0.000183277
0.000300087
0.000124183
0.000301395
6.33801e-05
0.000282055
-1.84786e-05
-0.000114659
0.000247228
-0.000206239
4.11192e-05
-0.000187326
-4.71089e-05
-0.000115089
-5.32676e-05
-4.53668e-05
-3.55775e-05
3.2951e-05
1.74465e-05
0.000120918
6.02181e-05
0.000221169
0.000111748
0.000287508
0.000116619
0.00031355
9.78058e-05
0.000312265
6.43168e-05
0.00029714
-3.64226e-06
-9.42014e-05
0.000276384
-3.80773e-05
7.04736e-05
-1.64928e-05
-7.65554e-05
2.84643e-05
-0.000103653
8.56865e-05
-9.55071e-05
0.000146697
-4.43988e-05
0.000204475
2.06954e-06
0.000281823
3.3986e-05
0.000351512
4.64843e-05
0.000394131
5.47866e-05
0.000426343
3.17221e-05
0.000444508
-2.21877e-05
0.000435307
-8.56007e-05
-0.000755805
-6.89147e-05
-0.000627129
-0.000128678
-0.000455289
-0.000171844
-0.000276626
-0.00017867
-0.000115851
-0.000160798
1.03454e-05
-0.000126296
0.000103429
-9.33414e-05
0.000160368
-5.84449e-05
0.000162555
-1.17797e-05
0.000142498
1.21291e-06
9.22986e-05
2.1601e-05
5.59025e-05
-0.000681285
-0.000100524
-0.000590581
-0.000219385
-0.000448537
-0.000313895
-0.000282126
-0.000345148
-0.000144449
-0.000299001
-1.06989e-05
-0.000262061
0.000118061
-0.000226353
0.000117214
-7.23449e-05
6.64196e-06
3.86884e-05
-4.91861e-05
5.01292e-05
-1.90187e-05
1.35289e-05
3.71279e-05
-0.000594571
-7.88018e-05
-0.000549496
-0.000264621
-0.00044482
-0.000418786
-0.000306321
-0.000484521
-0.000198176
-0.000411283
-0.000111605
-0.000355023
-6.23266e-05
-0.00028761
-0.000107129
-7.03596e-05
-0.000126452
5.02698e-05
-0.000101448
0.000101508
-6.65372e-05
6.80303e-05
5.73312e-05
-0.000241034
-6.86714e-05
-0.000253553
-0.000255711
-0.00022298
-0.000453515
-0.000161588
-0.000551242
-0.000106024
-0.000472582
-6.93296e-05
-0.000392945
-2.9031e-05
-0.000326849
9.00904e-06
-0.000103971
-2.15719e-05
8.86792e-05
-9.68813e-05
0.000150133
-0.00014491
9.10981e-05
6.39111e-05
0.000237252
-0.000129966
0.00025052
-0.000271008
0.000202195
-0.000416903
0.000105494
-0.00046511
2.34451e-05
-0.00039039
3.17653e-05
-0.000400582
7.70288e-05
-0.000370124
5.29757e-05
-8.0818e-05
-5.43219e-05
0.000198023
-0.000132572
9.5806e-05
-0.000180484
-1.59769e-05
-4.99897e-05
0.000434057
-0.000192671
0.000458218
-0.000282455
0.000394739
-0.000346875
0.000220873
-0.000293992
6.65792e-05
-0.000240698
-1.66418e-05
-0.000320496
-5.68133e-05
-0.000336615
-0.00011481
-5.28582e-05
-0.000189398
0.000255926
-0.00026289
5.95516e-06
-0.000226459
-0.00011234
-0.000171061
0.000442884
-0.000264994
0.000447753
-0.000283944
0.00037451
-0.000261504
0.000259475
-0.000174164
0.000114409
-9.79972e-05
-0.0001059
-0.000103787
-0.000283992
-0.000173175
-0.000358083
-7.8157e-05
-0.000349561
0.000103715
-0.000267241
7.65759e-05
-0.000248258
-0.000109288
-0.000255683
0.000325412
-0.000252335
0.000319246
-0.000278168
0.000314187
-0.000255582
0.000280536
-0.000139261
0.000184469
-2.48683e-06
3.38952e-05
4.49188e-05
-0.00014514
1.85418e-06
-0.000218727
-3.25793e-05
-0.000277665
-4.50317e-05
-0.000314138
6.51307e-05
-0.000232503
1.07299e-05
-0.000304424
0.000262039
-0.000222443
0.000243584
-0.00026004
0.00023079
-0.000243707
0.000220026
-0.000131616
0.000199702
1.22139e-05
0.000171503
6.64646e-05
0.000102744
6.21773e-05
3.07303e-05
3.30591e-05
-8.1535e-05
2.20734e-05
-0.000273565
-3.76196e-05
-0.000292718
0.000170072
-0.000141143
0.000218482
-0.000193977
0.000197345
-0.000239285
0.000177809
-0.000224911
0.000175232
-0.000131463
0.000196094
-1.4838e-05
0.000216293
3.58218e-05
0.000222851
4.25834e-05
0.000211618
2.84974e-05
0.000152393
6.71748e-05
-5.00967e-05
1.9192e-06
-0.000286207
0.000270085
0.000168352
0.000255298
-0.000173293
0.000231588
-0.000216085
0.000207282
-0.00020147
0.000204735
-0.000130858
0.000242831
-5.69579e-05
0.000284389
-1.36235e-05
0.000317095
-2.15855e-06
0.000308567
1.85564e-05
0.000304692
5.36719e-05
0.00010866
0.000125776
-0.000207212
0.000256111
0.000567171
0.000416412
-0.000155507
0.00038737
-0.000189001
0.000364693
-0.000181858
0.00036812
-0.000138333
0.000403956
-9.7856e-05
0.000439292
-5.48646e-05
0.000464193
-3.38572e-05
0.000457377
1.51272e-05
0.000441023
5.59064e-05
0.000290545
0.000240528
-2.13416e-05
0.000294857
0.000948492
3.37592e-05
-3.37592e-05
5.57757e-05
-2.20166e-05
7.10559e-05
-1.52802e-05
7.27302e-05
-1.67429e-06
7.32093e-05
-4.79123e-07
7.07961e-05
2.41316e-06
7.13173e-05
-5.2118e-07
5.28701e-05
1.84472e-05
-2.66504e-05
7.95205e-05
-0.000222458
0.000195808
-0.000558871
0.000336413
0.00032901
-0.000887882
3.40719e-05
-6.78311e-05
5.70196e-05
-4.49642e-05
6.22285e-05
-2.04891e-05
5.32934e-05
7.26072e-06
2.99746e-05
2.28397e-05
-1.6252e-05
4.86398e-05
-8.17663e-05
6.49931e-05
-0.000172168
0.000108849
-0.000351908
0.00025926
-0.000589057
0.000432957
-0.000728668
0.000476024
0.000428056
-0.000827714
4.00741e-05
-0.000107905
6.01241e-05
-6.50142e-05
5.86908e-05
-1.90558e-05
4.41052e-05
2.18463e-05
-4.35367e-06
7.12985e-05
-8.0053e-05
0.000124339
-0.000166931
0.000151871
-0.000259452
0.00020137
-0.000394723
0.000394531
-0.000502897
0.00054113
-0.000569428
0.000542556
0.000484015
-0.000625386
4.83858e-05
-0.000156291
7.4496e-05
-9.11245e-05
6.02716e-05
-4.83141e-06
4.44003e-05
3.77175e-05
1.63529e-05
9.93459e-05
-4.57876e-05
0.00018648
-0.000131918
0.000238002
-0.000225966
0.000295418
-0.00031637
0.000484935
-0.000365624
0.000590384
-0.000396201
0.000573133
0.00050146
-0.000413646
4.42103e-05
-0.000200501
6.69618e-05
-0.000113876
5.9387e-05
2.74341e-06
6.13122e-05
3.57924e-05
4.98388e-05
0.000110819
3.46482e-06
0.000232854
-7.27856e-05
0.000314252
-0.000176801
0.000399433
-0.000236808
0.000544942
-0.000240666
0.000594243
-0.000229108
0.000561575
0.000481522
-0.000209171
1.28264e-05
-0.000213328
1.16471e-05
-0.000112697
2.93661e-05
-1.49756e-05
5.36829e-05
1.14755e-05
3.26859e-05
0.000131816
-9.6516e-06
0.000275191
-9.45881e-05
0.000399189
-0.000187363
0.000492208
-0.000208712
0.00056629
-0.000183717
0.000569248
-0.000148348
0.000526205
0.000450691
-0.000117517
-4.48858e-05
-0.000168442
-8.15168e-05
-7.60658e-05
-9.45267e-05
-1.96573e-06
-9.74187e-05
1.43673e-05
-0.000111306
0.000145703
-0.000137707
0.000301592
-0.000195868
0.00045735
-0.00021868
0.000515019
-0.000194786
0.000542395
-0.000136582
0.000511044
-8.26212e-05
0.000472244
0.000409342
-4.12727e-05
-8.45841e-05
-8.38576e-05
-0.000148328
-1.23224e-05
-0.000201003
5.07101e-05
-0.000235692
4.90553e-05
-0.000251535
0.000161546
-0.000263894
0.00031395
-0.000261222
0.000454677
-0.000225425
0.000479221
-0.000158796
0.000475764
-6.84946e-05
0.000420741
1.22079e-05
0.00039154
0.000341532
8.00162e-05
-0.000105943
2.20857e-05
-0.000228555
0.000110289
-0.000293351
0.000115506
-0.000331987
8.76901e-05
-0.000344978
0.000174535
-0.000334144
0.000303114
-0.000292522
0.000413052
-0.000204452
0.000391148
-9.65675e-05
0.000367878
2.76771e-05
0.000296493
0.000162427
0.000256786
0.000216931
0.000287023
-0.000202825
0.000224911
-0.000265606
0.00017307
-0.000330998
0.000180899
-0.000398024
0.000154715
-0.000412167
0.000188677
-0.000367421
0.000258365
-0.000291493
0.00033712
-0.000175806
0.000275457
-1.86503e-05
0.000210718
0.000149163
0.000128674
0.000309505
9.64394e-05
6.29542e-05
0.000463478
-0.000228548
0.000453469
-0.000284114
0.000228465
-0.000355998
0.000252782
-0.000410138
0.000208855
-0.000399661
0.000178199
-0.000351173
0.000209876
-0.000278778
0.000264723
-0.000130193
0.000126868
6.71872e-05
1.33237e-05
0.000256962
-6.11275e-05
0.000434775
-8.14224e-05
-0.000111806
0.000609459
-7.84315e-05
0.000541726
-0.000210456
0.000344661
-0.000267744
0.000300955
-0.000313806
0.000251872
-0.000319508
0.000182912
-0.000253924
0.000144291
-9.48025e-05
0.000104498
0.000118994
-8.9741e-05
0.000311357
-0.000182644
0.000483038
-0.000236879
0.000650445
-0.000253617
0.00079605
-0.000262479
-0.00107655
0.000188665
-0.00120388
0.000127333
-0.00123846
3.45794e-05
-0.00121566
-2.28082e-05
-0.00115046
-6.52109e-05
-0.00105571
-9.47775e-05
-0.00091775
-0.000138027
-0.000746858
-0.000170994
-0.000538396
-0.000208582
-0.00030935
-0.000229143
-7.8941e-05
-0.000230448
-7.89439e-05
-0.000921569
0.000282519
-0.000958155
0.00016392
-0.000942127
1.85497e-05
-0.000887877
-7.70637e-05
-0.000821289
-0.000131824
-0.000743214
-0.000172938
-0.000656813
-0.000224666
-0.000546669
-0.00028163
-0.000422449
-0.000333544
-0.000280045
-0.000372443
-0.000105467
-0.000405683
-0.00018451
-0.000674962
0.000332095
-0.000673264
0.000162221
-0.000636235
-1.84809e-05
-0.000593944
-0.000119355
-0.000546324
-0.000179446
-0.000490211
-0.000229047
-0.000430723
-0.000284174
-0.000358874
-0.000353769
-0.000287867
-0.000405441
-0.000204965
-0.000457236
-9.88671e-05
-0.000514603
-0.000284591
-0.000428894
0.000347342
-0.000418775
0.000152101
-0.000408822
-2.84352e-05
-0.000405514
-0.000122664
-0.00039672
-0.000188238
-0.000372347
-0.000253362
-0.000331544
-0.000324654
-0.000274391
-0.000410313
-0.00021843
-0.000461108
-0.000148855
-0.000527883
-7.56588e-05
-0.000592488
-0.000365083
-0.000200917
0.000339088
-0.000202241
0.000153424
-0.000232558
1.88075e-06
-0.000260437
-9.4785e-05
-0.000266732
-0.000181942
-0.000259513
-0.000260539
-0.000245553
-0.000338237
-0.000216022
-0.000438827
-0.000178532
-0.000497288
-0.000116379
-0.000589108
-4.06288e-05
-0.000671295
-0.000416899
-0.000112397
0.000333966
-0.000115632
0.000156659
-0.000132017
1.8265e-05
-0.000144291
-8.25115e-05
-0.000145083
-0.00018115
-0.000139504
-0.000266107
-0.000148539
-0.000329038
-0.000152775
-0.000433882
-0.000149078
-0.000499603
-0.000103935
-0.000631915
-3.82237e-05
-0.000736523
-0.00047629
-2.54114e-05
0.000318102
-2.27665e-05
0.000154011
-4.48711e-06
-1.61337e-08
2.48373e-05
-0.000111837
4.02754e-05
-0.000196589
4.65299e-05
-0.00027236
2.03889e-05
-0.000302866
-2.06626e-05
-0.000392574
-6.74017e-05
-0.000452182
-6.59317e-05
-0.00063166
-2.76879e-05
-0.000774354
-0.000535138
0.000137694
0.00026042
0.000181983
0.000109717
0.000221995
-4.00338e-05
0.000262404
-0.000152249
0.000276781
-0.000210966
0.000264219
-0.000259798
0.000225681
-0.000264324
0.000158349
-0.000325192
7.16862e-05
-0.000365284
1.49632e-05
-0.000574513
-1.526e-05
-0.000757027
-0.000578514
0.000387246
0.000160192
0.000452711
4.42425e-05
0.00049001
-7.73459e-05
0.000506291
-0.000168539
0.000498199
-0.00020288
0.000458585
-0.000220191
0.00039435
-0.000200111
0.000312732
-0.000243668
0.000237191
-0.000290037
0.000175076
-0.000514224
1.4849e-05
-0.000650138
-0.000542759
0.000584296
3.93689e-05
0.00066653
-3.80071e-05
0.00070996
-0.000120801
0.000711277
-0.000169882
0.000685952
-0.000177586
0.000631225
-0.000165534
0.000570295
-0.000139396
0.000504378
-0.000178417
0.000441663
-0.000229336
0.000326249
-0.000407471
4.26381e-05
-0.000466631
-0.000395982
0.000758093
-0.000109309
0.000850768
-0.000130711
0.000879987
-0.000150072
0.000866827
-0.000156813
0.00083216
-0.000143062
0.000786442
-0.000120078
0.000751358
-0.000104804
0.00069735
-0.000125662
0.000615985
-0.000151594
0.000432089
-0.000241223
0.000146736
-0.000285242
-3.12962e-05
0.000907496
-0.000224503
0.000951424
-0.000176293
0.00095207
-0.000151803
0.000936182
-0.000142083
0.000909085
-0.00011728
0.000880078
-9.24964e-05
0.000842093
-6.81253e-05
0.000765991
-5.15999e-05
0.000655083
-4.43084e-05
0.000441195
-4.9689e-05
0.000134477
-6.40682e-05
0.000336426
5.3178e-05
-5.31791e-05
8.87465e-05
-3.557e-05
0.000113582
-2.48359e-05
0.000122853
-9.27161e-06
0.000123386
-5.33584e-07
9.42134e-05
2.91719e-05
5.01828e-05
4.40304e-05
7.597e-06
4.25857e-05
-2.57576e-05
3.33544e-05
-3.94e-05
1.36422e-05
-3.66273e-05
-2.77312e-06
-1.55572e-05
-2.10705e-05
3.97029e-05
-9.28807e-05
8.37116e-05
-7.95793e-05
0.000107265
-4.83894e-05
0.000120794
-2.28007e-05
0.000116433
3.82639e-06
7.70367e-05
6.85683e-05
1.07346e-05
0.000110332
-5.47399e-05
0.00010806
-9.6865e-05
7.54795e-05
-0.000113664
3.04413e-05
-0.000111928
-4.50974e-06
-3.00317e-05
-9.74531e-05
3.22356e-05
-0.000125115
7.34916e-05
-0.000120836
9.70009e-05
-7.18986e-05
0.000125466
-5.12661e-05
0.0001339
-4.60815e-06
0.000102754
9.97136e-05
4.26264e-05
0.00017046
-2.47012e-05
0.000175388
-7.28966e-05
0.000123675
-9.98845e-05
5.74291e-05
-0.000107861
3.46733e-06
-3.16474e-05
-0.000106245
2.22283e-05
-0.000147343
4.36971e-05
-0.000142305
7.21581e-05
-0.00010036
0.000105964
-8.50723e-05
0.000110884
-9.52911e-06
8.05626e-05
0.000130034
2.16498e-05
0.000229371
-3.62012e-05
0.000233238
-8.2068e-05
0.000169541
-0.00012298
9.83406e-05
-0.000166846
4.73338e-05
5.24215e-05
-0.000250913
9.13271e-06
-0.000156475
1.9358e-05
-0.000152531
5.01009e-05
-0.000131103
7.21813e-05
-0.000107154
5.18261e-05
1.08255e-05
-4.08299e-08
0.000181901
-5.63278e-05
0.000285657
-9.94519e-05
0.00027636
-0.00013705
0.000207138
-0.000186073
0.000147364
-0.000303454
0.000164714
0.000233307
-0.00048434
1.16348e-05
-0.000168109
2.12482e-05
-0.000162145
1.39431e-05
-0.000123799
-7.87044e-06
-8.53419e-05
-7.06408e-05
7.3597e-05
-0.000140925
0.000252187
-0.000167867
0.000312599
-0.000172179
0.000280671
-0.000186106
0.000221065
-0.000257503
0.00021876
-0.000411601
0.000318809
0.000361525
-0.000539828
-9.15274e-06
-0.000158957
-1.76014e-05
-0.000153697
-5.56084e-05
-8.57933e-05
-0.000118827
-2.21251e-05
-0.000204394
0.000159165
-0.000245083
0.000292877
-0.000241434
0.000308951
-0.000230508
0.000269744
-0.000248584
0.000239141
-0.000336327
0.000306501
-0.000432892
0.000415365
0.000411088
-0.000482476
-5.54665e-05
-0.00010349
-0.000101311
-0.000107853
-0.000148348
-3.87589e-05
-0.000231733
6.12572e-05
-0.000311198
0.000238633
-0.000334912
0.000316594
-0.00033141
0.00030545
-0.000322726
0.000261061
-0.000335351
0.000251765
-0.000375585
0.000346732
-0.000389937
0.000429707
0.000403467
-0.000382351
-0.000107641
4.14939e-06
-0.000182935
-3.25602e-05
-0.000250615
2.89155e-05
-0.000330595
0.000141257
-0.000385811
0.000293935
-0.000400338
0.000331166
-0.000392661
0.000297774
-0.000384853
0.000253253
-0.000384847
0.000251759
-0.000382115
0.000343998
-0.000338938
0.00038652
0.000328619
-0.00026412
-0.000209552
0.000213722
-0.00028056
3.8292e-05
-0.000338676
8.70706e-05
-0.000399567
0.000203239
-0.000445955
0.0003429
-0.000471084
0.000358754
-0.000469123
0.000296511
-0.000460105
0.000244279
-0.000446227
0.000237882
-0.000406236
0.000304005
-0.000298917
0.000279195
0.000186413
-0.000156727
-9.99286e-05
0.000316875
-0.000218344
0.000156993
-0.000305357
0.000175884
-0.000367838
0.000272018
-0.000396688
0.000384427
-0.000411157
0.000389527
-0.0004429
0.000342159
-0.000494262
0.000301737
-0.00049279
0.000237308
-0.000427714
0.000238922
-0.000256546
0.000107907
-6.13708e-06
-6.41894e-05
1.10769e-05
0.000292934
-8.78138e-05
0.000264428
-0.000180218
0.000284285
-0.000244903
0.000357233
-0.000270005
0.000434926
-0.000280846
0.000431584
-0.000294122
0.000390841
-0.000289026
0.000332622
-0.000313604
0.000285012
-0.000289377
0.00021787
-0.000128132
-6.01346e-05
8.06344e-05
-0.000219536
4.52848e-06
-2.55992e-05
3.38008e-05
-2.92725e-05
5.8633e-05
-2.48324e-05
8.13684e-05
-2.27355e-05
0.00010346
-2.20921e-05
0.000111107
-7.6474e-06
8.74399e-05
2.36674e-05
2.56834e-05
6.17564e-05
-2.56333e-05
5.13165e-05
-4.86519e-05
2.30184e-05
-3.07508e-05
-1.79013e-05
-3.07516e-05
-7.44098e-05
-4.86424e-05
-4.13555e-05
-6.23268e-05
-1.34005e-05
-5.27877e-05
1.23566e-05
-4.84935e-05
3.76481e-05
-4.7385e-05
4.90493e-05
-1.90499e-05
4.97967e-05
2.29196e-05
3.91411e-05
7.24119e-05
2.82297e-05
6.2228e-05
1.4793e-05
3.64551e-05
-5.09045e-06
1.98132e-06
-3.58466e-05
-0.000121374
-3.35133e-05
-0.000152413
-3.12881e-05
-0.000166129
-3.90741e-05
-0.000169481
-4.51467e-05
-0.000151496
-6.53761e-05
-0.000115488
-5.50666e-05
-6.6424e-05
-2.61625e-05
5.73296e-06
2.1313e-07
6.16001e-05
6.29353e-06
7.61144e-05
2.19235e-05
3.79346e-05
4.01558e-05
2.07193e-06
-0.000376987
9.25596e-05
-0.000491945
8.36644e-05
-0.000570046
3.9014e-05
-0.0006108
-4.4188e-06
-0.000607732
-6.85016e-05
-0.000545703
-0.000117313
-0.000412243
-0.000160419
-0.000217195
-0.000196877
-2.38428e-05
-0.000189681
7.18194e-05
-7.50926e-05
6.46112e-05
4.72644e-05
6.66586e-05
-0.000637106
0.000245319
-0.000721607
0.000168149
-0.000779434
9.68056e-05
-0.000806118
2.21634e-05
-0.000809648
-6.55449e-05
-0.000764442
-0.000165441
-0.000643639
-0.000289827
-0.000467688
-0.000384045
-0.000249447
-0.000417987
-4.50098e-05
-0.000287347
3.3819e-05
-3.53043e-05
0.000100149
-0.000610724
0.000316199
-0.000671235
0.000228627
-0.000718782
0.000144273
-0.000764488
6.74238e-05
-0.000793306
-3.99187e-05
-0.000760826
-0.000210186
-0.000676851
-0.000391075
-0.000562117
-0.000510143
-0.000413757
-0.000575966
-0.000223041
-0.00049132
-6.02426e-05
-0.000217716
2.66611e-05
-0.000518005
0.000351695
-0.000552673
0.000263241
-0.000584366
0.000175784
-0.000631288
0.000112678
-0.00069408
1.3096e-05
-0.000686223
-0.000236238
-0.000618806
-0.000461106
-0.00051734
-0.000607425
-0.00039503
-0.000699592
-0.000259958
-0.000643569
-8.22843e-05
-0.000430561
-4.88895e-05
-0.000356702
0.000325986
-0.00034097
0.000247431
-0.000331673
0.000166099
-0.000391788
0.000169074
-0.000480777
8.85957e-05
-0.000525765
-0.000190912
-0.000500593
-0.00047375
-0.000432272
-0.000666231
-0.000348773
-0.000780146
-0.000233862
-0.000765765
-7.64348e-05
-0.000595504
-7.92421e-05
-0.000171939
0.000233737
-8.82493e-05
0.000163646
7.67827e-06
6.98058e-05
-4.74393e-05
0.000219638
-0.000120538
0.000162826
-0.000199184
-9.89908e-05
-0.000260986
-0.000407051
-0.000253534
-0.000668507
-0.000250574
-0.000778045
-0.000217529
-0.000796213
-0.000119538
-0.000696623
-0.000167034
-2.91346e-05
0.000106102
0.000130137
4.3114e-06
0.000285102
-8.53495e-05
0.000332453
0.000172631
0.000327034
0.000182759
0.000242437
-7.95178e-06
0.000168437
-0.000338231
9.87291e-05
-0.000598074
2.90991e-06
-0.000679061
-8.55022e-05
-0.00070573
-0.000108102
-0.000684629
-0.000262571
7.7336e-05
-3.54812e-05
0.000230063
-0.000148438
0.000346852
-0.000202672
0.000470524
5.20275e-05
0.000543294
0.000123524
0.000563717
-3.24734e-05
0.000599698
-0.000380014
0.000547564
-0.00054919
0.000450986
-0.000587217
0.000313047
-0.000574838
0.00011368
-0.00050433
-0.000100418
0.000253277
-0.000209508
0.000334001
-0.000229293
0.000337094
-0.000206547
0.000407003
-1.59561e-05
0.00056816
-3.2158e-05
0.000752761
-0.000232323
0.000828036
-0.000473961
0.0007808
-0.000520387
0.000670509
-0.000497164
0.000488761
-0.00041463
0.000209922
-0.000264498
0.000190409
-3.25782e-05
3.25781e-05
-5.53026e-05
2.27243e-05
-6.2084e-05
6.78138e-06
-5.63693e-05
-5.71468e-06
-5.51411e-05
-1.22831e-06
-6.0938e-05
5.7969e-06
-6.00811e-05
-8.56893e-07
-7.67048e-05
1.66237e-05
-0.000141267
6.45621e-05
-0.00028343
0.000142163
-0.000459616
0.000176186
0.000142687
-0.000602303
-4.43888e-06
3.7017e-05
-1.56246e-05
3.391e-05
-2.58578e-05
1.70145e-05
-3.94538e-05
7.8814e-06
-5.45978e-05
1.39157e-05
-9.16606e-05
4.28597e-05
-0.000159749
6.72319e-05
-0.000266956
0.000123831
-0.000397971
0.000195577
-0.00049732
0.000241511
-0.000573501
0.000252368
0.00023419
-0.000665004
3.35195e-05
3.49743e-06
4.18303e-05
2.55992e-05
3.487e-05
2.39748e-05
1.46934e-05
2.8058e-05
-1.27472e-05
4.13563e-05
-6.65602e-05
9.66729e-05
-0.000155482
0.000156153
-0.000247326
0.000215675
-0.000326167
0.000274418
-0.000402177
0.000317521
-0.00049075
0.000340941
0.000334379
-0.00059094
5.28398e-05
-4.93423e-05
9.29273e-05
-1.44882e-05
0.000101787
1.51154e-05
8.97454e-05
4.00993e-05
6.44656e-05
6.66362e-05
1.86376e-05
0.000142501
-5.17419e-05
0.000226533
-0.000127225
0.000291158
-0.000216044
0.000363237
-0.000309868
0.000411345
-0.000396577
0.00042765
0.000421661
-0.000483859
5.84545e-05
-0.000107797
0.000127739
-8.37729e-05
0.000150356
-7.50108e-06
0.000154679
3.57764e-05
0.000138803
8.25118e-05
8.92811e-05
0.000192023
2.59379e-05
0.000289876
-5.10763e-05
0.000368172
-0.000137115
0.000449276
-0.000210695
0.000484925
-0.000267732
0.000484687
0.000479589
-0.00032566
7.48156e-05
-0.000182612
0.000152297
-0.000161254
0.000181893
-3.70967e-05
0.000169646
4.80232e-05
0.000136433
0.000115725
9.54775e-05
0.000232978
4.28321e-05
0.000342521
-3.24556e-05
0.000443461
-0.000104244
0.000521069
-0.00013461
0.000515292
-0.000143926
0.000494003
0.000495385
-0.000159722
7.61931e-05
-0.000258805
0.000130181
-0.000215243
0.000137929
-4.48446e-05
0.000108632
7.73197e-05
6.35001e-05
0.000160857
3.1997e-05
0.000264481
-1.61266e-05
0.000390653
-7.117e-05
0.000498616
-9.93556e-05
0.000549673
-9.27704e-05
0.000509135
-6.3224e-05
0.000464524
0.000463311
-3.11497e-05
3.90368e-05
-0.000297842
4.44651e-05
-0.000220671
1.10158e-05
-1.13954e-05
-2.32624e-05
0.000111598
-5.82945e-05
0.000195888
-8.91271e-05
0.000295329
-0.000115657
0.000417475
-0.000122324
0.000506627
-9.79607e-05
0.000528491
-6.16592e-05
0.000477389
-9.56498e-06
0.000415635
0.000397677
5.67749e-05
-7.0905e-05
-0.000226937
-0.000126669
-0.000164908
-0.000167618
2.9552e-05
-0.000199876
0.000143858
-0.000197825
0.000193853
-0.00017089
0.00026869
-0.000141761
0.000389959
-0.00011287
0.000481821
-6.07706e-05
0.000482859
-6.21758e-06
0.000432453
4.9871e-05
0.000372225
0.000342636
0.000113884
-0.000157385
-6.95555e-05
-0.000244532
-7.77862e-05
-0.000265138
5.02096e-05
-0.00025614
0.000135263
-0.000238612
0.000177133
-0.000200023
0.000231815
-0.000148101
0.000341668
-7.60854e-05
0.00041579
1.53164e-05
0.000398359
8.80087e-05
0.000366745
0.000126981
0.00034456
0.000316778
0.00017075
-0.000131529
6.23377e-05
-0.000209999
7.07997e-09
-0.000220358
6.12699e-05
-0.000231906
0.000150156
-0.000239472
0.000189171
-0.000203841
0.000200954
-0.000123641
0.000268066
-9.96298e-06
0.000310044
9.3523e-05
0.000302303
0.000162419
0.000304052
0.000208575
0.000302278
0.000294642
0.000238492
-8.76344e-05
0.000140275
-0.00015185
6.05803e-05
-0.000142962
5.04404e-05
-0.000128084
0.000142525
-0.000110173
0.000181271
-7.83686e-05
0.000177894
-2.06932e-05
0.000220638
6.52139e-05
0.000234317
0.000147036
0.00022987
0.000211577
0.00024896
0.000261502
0.000258489
0.000301885
0.000255211
-0.000734013
0.000131709
-0.000795845
6.18317e-05
-0.000775206
-2.06399e-05
-0.000682519
-9.26878e-05
-0.000527121
-0.000155398
-0.000322624
-0.000204497
-6.37572e-05
-0.000258867
0.00022237
-0.000286127
0.000462898
-0.000240528
0.000426069
3.68281e-05
0.00024317
0.000182899
0.000243179
-0.000731855
0.00019856
-0.00075743
8.74057e-05
-0.000717299
-6.07718e-05
-0.000619317
-0.000190671
-0.000487553
-0.000287163
-0.000323668
-0.000368384
-0.000123056
-0.000459484
0.000101625
-0.000510822
0.000297632
-0.000436557
0.000275542
5.89199e-05
0.000140571
0.000317861
0.000383802
-0.000667169
0.000274789
-0.000699411
0.000119647
-0.000669325
-9.08597e-05
-0.00057778
-0.000282218
-0.000463303
-0.000401643
-0.000351656
-0.00048004
-0.000238928
-0.000572265
-9.77708e-05
-0.000652161
8.98736e-05
-0.000624435
8.96908e-05
5.91245e-05
-2.22173e-06
0.000409741
0.000381657
-0.000559832
0.00035076
-0.000602672
0.000162486
-0.000588697
-0.000104836
-0.000510651
-0.000360265
-0.000414175
-0.000498123
-0.000337663
-0.000556589
-0.000291601
-0.000618653
-0.000219129
-0.000725463
-9.60916e-05
-0.000748102
-8.28381e-05
4.59397e-05
-0.000142548
0.000469335
0.000239107
-0.000390753
0.000415853
-0.000451099
0.00022283
-0.000462615
-9.33215e-05
-0.000407728
-0.000415154
-0.00033013
-0.000575728
-0.000278454
-0.00060836
-0.000286298
-0.000611445
-0.000259373
-0.000753504
-0.000164677
-0.000843713
-5.32777e-05
-6.55554e-05
-0.000122381
0.000538053
0.000115216
-0.000182634
0.000438766
-0.000215465
0.000255662
-0.000248656
-6.01303e-05
-0.000246389
-0.00041742
-0.000202283
-0.000619837
-0.000189709
-0.000620982
-0.000221869
-0.000579523
-0.000211301
-0.000764588
-0.000158724
-0.00089787
4.49002e-05
-0.000270077
4.79885e-05
0.000532387
0.000162107
7.56133e-06
0.000400055
2.78195e-05
0.000235405
4.35096e-06
-3.66612e-05
-2.64226e-05
-0.000386647
-7.70611e-05
-0.000569204
-0.000157657
-0.000540432
-0.00018433
-0.000552791
-0.000152756
-0.000796537
-0.000127756
-0.000924661
5.51418e-05
-0.000454732
7.99371e-05
0.000499736
0.000251442
0.000120231
0.000336587
0.000160755
0.000194882
0.000166072
-4.19777e-05
0.000130496
-0.000351073
2.64612e-06
-0.000441403
-0.000147068
-0.000391141
-0.000171644
-0.000529627
-0.00014157
-0.000828279
-0.00010083
-0.000965187
5.90188e-05
-0.000614999
8.40774e-05
0.000466375
0.000351959
0.000175109
0.000277261
0.000208454
0.000161454
0.000226948
-6.04734e-05
0.000182812
-0.000306984
1.69657e-05
-0.000276071
-0.00016178
-0.00021413
-0.00021317
-0.000481464
-0.000248903
-0.000793371
-0.000225899
-0.000987258
-2.65079e-05
-0.000814635
8.93769e-05
0.000348177
0.000462553
0.000228397
0.000231954
0.000245499
0.00014697
0.000243501
-5.87603e-05
0.000141369
-0.000205809
1.50235e-05
-0.000151299
-0.000128862
-7.1103e-05
-0.000308427
-0.000302292
-0.000444686
-0.000654504
-0.000450458
-0.000981846
-0.000236713
-0.00103307
-2.03748e-05
0.000114245
0.000463213
0.000256909
0.000229089
0.000268843
0.000148962
0.000208691
2.8617e-06
6.79737e-05
-6.72388e-05
2.18254e-05
-0.000105188
-4.73073e-06
-4.44739e-05
-0.00022366
-8.40815e-05
-0.000459108
-0.000418556
-0.000526937
-0.000915645
-0.000411512
-0.00116789
-0.000136163
-0.000228876
0.000359223
0.000336316
0.000198632
0.000373964
0.000122937
0.000358142
3.44398e-05
0.000309259
-2.18101e-05
0.000155863
4.45814e-05
-8.39233e-06
0.000118538
-0.000118449
2.37327e-05
-0.000224846
-0.00031532
-0.000400251
-0.000745691
-0.000567055
-0.0010258
-0.000332007
-0.000543846
3.16002e-05
0.000764688
-0.000158336
-0.000650802
0.000742956
-0.000165923
0.000700774
-0.000152777
0.000649408
-0.000116514
0.000620113
-5.80987e-05
0.00061497
-1.41523e-05
0.000638818
-2.38663e-06
0.000683196
-7.16119e-06
0.00074846
-1.74389e-05
0.000813222
-3.89425e-05
0.000841398
-5.5386e-05
-7.98211e-05
0.000830207
0.000763263
-0.000246696
-0.000717708
0.000827505
-0.000249441
0.000862433
-0.000220999
0.000882853
-0.00020179
0.000903655
-0.000179415
0.000930546
-0.000140452
0.000960459
-0.000109924
0.000991327
-0.000100229
0.00101344
-9.43163e-05
0.00102129
-9.46453e-05
0.00101483
-8.21261e-05
-7.53785e-05
0.000988845
0.000786439
-8.14045e-05
-0.000735407
0.000784613
-4.64118e-05
0.000794958
-3.12681e-05
0.000827109
-3.94652e-05
0.000861832
-4.98306e-05
0.000887399
-4.58883e-05
0.000905204
-3.65203e-05
0.000922161
-4.18335e-05
0.000937268
-4.28746e-05
0.000946572
-5.61304e-05
0.00094793
-5.64253e-05
-5.30182e-05
0.000941353
0.000660738
-0.000649594
-2.13248e-05
0.000669849
-5.82898e-06
0.00067369
4.68328e-06
0.000681581
-2.96245e-06
0.000702199