/*--------------------------------*- C++ -*----------------------------------*\
| =========                 |                                                 |
| \\      /  F ield         | OpenFOAM: The Open Source CFD Toolbox           |
|  \\    /   O peration     | Version:  2212                                  |
|   \\  /    A nd           | Website:  www.openfoam.com                      |
|    \\/     M anipulation  |                                                 |
\*---------------------------------------------------------------------------*/
FoamFile
{
    version     2.0;
    format      ascii;
    arch        "LSB;label=32;scalar=64";
    class       volScalarField;
    location    "1.5";
    object      rho;
}
// * * * * * * * * * * * * * * * * * * * * * * * * * * * * * * * * * * * * * //

dimensions      [1 -3 0 0 0 0 0];

internalField   nonuniform List<scalar> 
3312
(
1.00057
1.00054
1.00051
1.00045
1.00045
1.00067
1.00173
1.0019
1.00204
1.00234
1.0028
1.00334
1.00058
1.0005
1.00045
1.00045
1.00045
1.00045
1.00045
1.00045
1.00045
1.00319
1.00528
1.00595
1.00058
1.00047
1.00045
1.00045
1.00045
1.1531
1.23487
1.3501
1.48637
1.12559
1.00534
1.00575
1.00058
1.00048
1.00288
1.05143
1.70661
2.50964
2.31501
2.73356
3.92749
4.43949
3.97479
1.33835
1.00058
1.00074
1.08366
2.10711
4.12962
3.37515
2.56946
2.69955
2.98721
4.42179
8.96207
8.97891
1.00058
1.0053
1.49379
4.37423
4.59237
2.80803
2.60375
2.5364
2.62408
2.70997
3.4837
6.80295
1.00204
1.03259
1.81194
5.08429
4.58495
2.62408
2.54586
2.62408
2.56493
2.64629
2.60846
2.66432
1.01673
1.23905
3.56597
5.08594
3.96
2.61712
2.62408
2.56493
2.64629
2.61833
2.66432
2.66988
1.09052
1.81823
4.41826
5.08429
3.66832
2.64931
2.59199
2.64629
2.61802
2.66432
2.66371
2.69804
1.28524
2.40896
4.372
4.61728
3.62572
2.75409
2.64629
2.62762
2.66432
2.66267
2.69804
2.70278
1.5044
2.66465
4.53892
4.79481
3.89732
2.87617
2.64897
2.66432
2.67062
2.69804
2.7015
2.71927
1.50791
2.38202
4.36766
4.97611
4.29024
3.01112
2.66432
2.67178
2.69514
2.69545
2.71356
2.72766
1.00395
1.0046
1.00527
1.00661
1.00979
1.0191
1.0465
1.22627
5.93697
81.1909
151.87
154.096
1.00642
1.00711
1.00818
1.01438
1.05338
1.25227
1.67953
4.58188
40.2226
267.305
346.079
259.832
1.00786
1.00797
1.01726
1.10269
1.81618
4.3874
8.30673
30.1229
210.22
403.176
447.531
434.352
1.22025
1.35121
1.2938
1.80696
5.49979
11.0714
19.0171
39.8976
113.251
319.027
448.411
448.061
8.93084
8.15308
6.40938
6.76112
10.9423
11.8526
13.6403
21.2637
87.0779
262.422
439.848
448.904
13.1009
20.745
22.2076
21.4853
14.0916
10.9906
11.0662
24.8356
150.629
377.362
449.188
448.215
3.42615
9.84465
26.0871
26.449
24.8201
19.8846
20.697
40.7434
222.286
449.277
448.187
448.963
2.83105
3.97317
9.97192
23.119
30.0243
31.7317
34.179
36.1294
75.5441
349.24
448.963
448.108
2.80977
3.1949
4.40903
8.69829
18.1422
28.9066
39.9453
55.678
63.5108
131.251
441.104
448.431
2.72085
2.78994
3.16833
4.57567
8.87439
18.3281
34.2001
56.4367
81.9632
105.903
347.94
447.588
2.7329
2.74652
2.89216
3.95197
7.18661
14.8241
29.8361
52.6874
84.2679
97.8173
201.195
443.382
2.89562
3.48835
4.93282
7.71307
13.0257
23.2427
38.6625
55.3897
75.112
80.62
113.762
402.357
1.0013
1.00115
1.0011
1.00103
1.00092
1.00091
1.00091
1.00091
1.00091
1.00141
1.00238
1.0024
1.00131
1.00129
1.00131
1.00132
1.00132
1.00105
1.00091
1.00091
1.00115
1.00215
1.00289
1.00295
1.00093
1.00075
1.00081
1.00099
1.00123
1.00114
1.00107
1.00118
1.00169
1.00294
1.00377
1.00394
1.00063
1.00052
1.00057
1.00092
1.00113
1.00107
1.00111
1.00166
1.00243
1.00374
1.00477
1.00504
1.00053
1.00049
1.00053
1.001
1.00102
1.00099
1.00101
1.00175
1.00326
1.00475
1.00586
1.00614
1.00051
1.00049
1.00059
1.00105
1.00099
1.00099
1.001
1.00184
1.00399
1.00635
1.00791
1.00817
1.00052
1.00049
1.00081
1.00127
1.00131
1.00136
1.00145
1.00225
1.00438
1.00731
1.01009
1.0116
1.00053
1.00053
1.00109
1.00182
1.00256
1.00343
1.00401
1.00454
1.00567
1.00808
1.01121
1.01426
1.00053
1.00066
1.00143
1.00248
1.00395
1.00646
1.00973
1.01225
1.01292
1.01347
1.01469
1.01781
1.00054
1.00084
1.00183
1.00301
1.00461
1.00716
1.01111
1.01657
1.02116
1.02444
1.02554
1.02982
1.0005
1.0005
1.00171
1.00372
1.00558
1.00807
1.01174
1.01658
1.02166
1.02592
1.02883
1.03381
10.2806
2.005
1.0005
1.0005
1.0005
1.00408
1.00403
1.01845
1.05256
1.08412
1.12515
1.18306
1.00242
1.00243
1.00305
1.00654
1.01329
1.02526
1.03765
1.04441
1.04028
1.02554
1.01045
1.0082
1.00305
1.0037
1.00478
1.00873
1.03101
1.12134
1.3424
1.61236
1.7402
1.61559
1.27284
1.01956
1.00401
1.00445
1.00505
1.00661
1.01845
1.14128
1.70637
2.82107
3.90724
4.30114
3.37761
1.50862
1.00504
1.00548
1.00613
1.0069
1.01016
1.07458
1.65737
3.28875
5.44842
7.56787
8.99052
5.63423
1.00611
1.00626
1.00657
1.00717
1.00879
1.0254
1.30464
2.532
4.7974
8.40885
14.819
21.3088
1.00773
1.00743
1.00758
1.008
1.00878
1.01308
1.06724
1.52599
2.78309
5.58127
16.6548
56.2785
1.01092
1.00911
1.00838
1.00849
1.00904
1.01061
1.01668
1.0998
1.49064
2.66031
10.8993
109.516
1.01535
1.0139
1.01187
1.00994
1.00944
1.01005
1.01198
1.03018
1.16952
1.76126
5.02678
166.572
1.02231
1.02306
1.0193
1.01319
1.00949
1.00971
1.01404
1.03654
1.13801
1.73216
7.57619
213.787
1.0361
1.03554
1.0282
1.01998
1.01802
1.02975
1.09094
1.33475
2.0682
4.60797
22.23
250.545
1.04086
1.04757
1.04824
1.05016
1.07751
1.20414
1.69623
3.28002
7.68977
17.74
70.2545
267.117
1.12288
1.10134
1.13107
1.22177
1.45274
2.15861
4.29985
9.81039
22.843
44.9538
133.65
267.522
1.01401
1.0099
1.00863
1.00755
1.00632
1.0048
1.0045
1.00448
1.00447
1.00439
1.00409
1.00388
1.01444
1.01412
1.01317
1.01195
1.01088
1.0095
1.00844
1.0075
1.00733
1.00807
1.00891
1.00709
1.01437
1.01079
1.01023
1.00952
1.00914
1.00848
1.00859
1.00909
1.01009
1.01094
1.01095
1.00929
1.0139
1.00809
1.00799
1.00789
1.00772
1.00743
1.0074
1.00826
1.00975
1.01057
1.01094
1.01025
1.01203
1.00803
1.00801
1.00962
1.01417
1.00936
1.00577
1.00669
1.00842
1.00948
1.00985
1.01079
1.01042
1.00805
1.00803
1.01397
1.02244
1.01154
1.00562
1.00554
1.00662
1.00775
1.0096
1.01494
1.00921
1.00807
1.00921
1.0179
1.02273
1.01202
1.00544
1.00475
1.00516
1.00597
1.01065
1.02453
1.00855
1.00808
1.01159
1.02101
1.02398
1.01304
1.00536
1.00393
1.00391
1.00469
1.01101
1.03136
1.00818
1.00817
1.01419
1.02545
1.02844
1.01652
1.0061
1.00335
1.00288
1.00377
1.00992
1.02823
1.00819
1.00818
1.06052
1.26067
1.43877
1.31847
1.04508
1.00286
1.00287
1.00294
1.00798
1.02066
1.954
3.25835
5.13974
7.16466
8.37748
7.71188
4.80201
1.93148
1.02926
1.00249
1.00255
1.0127
26.8814
36.8937
38.8679
34.9711
34.4494
32.7868
27.5091
18.5118
7.68351
1.82621
2.02905
2.04718
1.00324
1.00293
1.00293
1.00293
1.00293
1.00293
1.00293
1.00293
1.00293
1.00293
1.00293
1.00293
1.00411
1.00293
1.00293
1.00292
1.00375
1.00358
1.00293
1.00293
1.00293
1.00293
1.0032
1.01454
1.00554
1.00426
1.00614
1.01052
1.01502
1.01495
1.00925
1.00293
1.00292
1.00293
1.00302
1.06526
1.00842
1.00938
1.01473
1.02505
1.04155
1.07862
1.20038
1.46779
1.6196
1.20547
1.01284
1.23295
1.01347
1.01891
1.02951
1.0514
1.12657
1.53127
3.16578
6.5042
8.77555
7.0699
1.80594
1.63896
1.02482
1.0383
1.05833
1.11589
1.51037
3.82144
10.4159
17.2036
21.7664
26.1227
20.0782
5.83892
1.04798
1.0735
1.10705
1.27817
2.93275
10.2367
19.3794
22.1562
24.9288
40.8474
75.7866
120.146
1.07508
1.13137
1.19235
1.73163
6.89463
18.1329
18.2171
15.6937
18.2975
39.3651
98.7916
136.463
1.07144
1.16523
1.31648
2.25938
14.8801
18.0458
10.955
7.98313
11.0834
24.4461
70.528
136.291
1.05148
1.13838
1.32224
3.33289
15.6798
15.7992
6.87674
5.52806
8.25983
15.0215
39.4019
136.454
1.02934
1.07676
1.1993
5.45788
15.5144
10.3714
5.76526
5.51728
7.82467
13.9998
27.864
136.277
1.23962
1.08149
1.08221
5.1025
13.0355
8.64654
7.12356
10.8474
19.0414
30.7882
45.2523
136.353
1.00115
1.00114
1.00114
1.00114
1.00113
1.00111
1.00109
1.00109
1.00109
1.00109
1.00111
1.00146
1.00122
1.00155
1.00181
1.00174
1.00153
1.00128
1.00121
1.00115
1.00111
1.00133
1.00178
1.00229
1.00219
1.00231
1.0023
1.00203
1.00152
1.00117
1.00112
1.00123
1.0014
1.00176
1.00253
1.00331
1.00231
1.00231
1.00231
1.00215
1.00159
1.00104
1.00098
1.00114
1.00147
1.00205
1.00292
1.00403
1.00231
1.00231
1.0022
1.00176
1.00119
1.00095
1.00094
1.00095
1.00136
1.00206
1.00308
1.00453
1.00231
1.00186
1.00151
1.00114
1.00095
1.00094
1.00095
1.00094
1.00105
1.00198
1.00311
1.00452
1.00214
1.0013
1.00099
1.00095
1.00095
1.00095
1.00095
1.01198
1.04656
1.02763
1.00309
1.00442
1.00186
1.00102
1.00095
1.00095
1.00095
1.00807
1.1207
1.55548
2.27903
2.64427
1.82147
1.04215
1.00176
1.00099
1.00095
1.00367
1.03819
1.27136
2.1627
4.00593
6.43881
8.9621
9.25065
5.1506
1.00176
1.00923
1.05271
1.20446
1.63261
2.82598
5.26147
8.79847
12.4714
15.8797
19.1938
18.2864
1.08572
1.29889
2.42333
4.43329
6.88778
9.69562
13.3793
17.7514
21.4088
23.4195
24.5855
26.0728
13.5536
18.598
23.9135
28.4463
30.4328
31.8364
33.9516
36.1315
37.5068
36.3356
31.8814
29.4527
1.00177
1.00224
1.00288
1.00358
1.00402
1.00408
1.00397
1.00396
1.00394
1.00396
1.00394
1.05797
1.00305
1.00427
1.00564
1.00667
1.00707
1.00641
1.00536
1.0056
1.00654
1.00463
1.00468
1.1197
1.00452
1.00635
1.0082
1.00952
1.01024
1.01191
1.0188
1.04717
1.08297
1.02526
1.01922
1.30454
1.00584
1.00852
1.01097
1.01196
1.01163
1.02413
1.10909
1.34392
1.49713
1.13493
1.13854
1.56751
1.0068
1.01021
1.01322
1.01385
1.01252
1.04174
1.43203
2.26832
2.35446
1.33403
1.42135
2.54083
1.00694
1.01134
1.01435
1.01434
1.01403
1.05665
1.86258
3.41377
3.28875
1.75388
1.76674
11.8792
1.00649
1.01063
1.01366
1.01376
1.0172
1.0729
1.97961
3.87545
4.19388
3.20592
2.19498
40.8702
1.00644
1.00847
1.01116
1.01308
1.03207
1.12888
1.80232
3.85318
4.73886
5.0013
3.13462
66.8678
1.35445
1.00926
1.00921
1.01863
1.15319
1.62979
2.51405
4.37259
4.24065
5.57584
5.8856
84.2773
9.70425
1.95165
1.02133
1.13321
1.98135
3.50526
3.97278
4.38001
3.58094
6.35746
13.546
119.182
23.8863
13.1096
2.52045
2.62581
4.02556
4.08668
3.29279
3.49474
3.40102
8.55457
40.3921
120.043
30.1
27.3864
15.3099
6.74021
3.71491
3.07932
3.08919
3.07932
3.45322
10.8003
36.5057
108.336
31.7048
22.2741
20.1872
13.6908
6.57432
3.31623
2.6791
2.69514
2.74148
3.14968
4.03639
5.55836
173.936
204.155
205.763
186.987
143.028
92.4884
62.4324
48.8475
40.718
37.0332
38.1844
42.8368
226.427
226.841
226.553
227.018
226.9
227.406
227.148
227.98
227.14
228.214
208.915
179.336
227.051
226.364
227.095
226.613
227.133
226.849
227.328
219.541
207.941
196.163
187.908
180.797
8.11605
12.2841
18.7788
29.2522
43.3128
59.7407
72.1475
73.0475
70.6368
65.5896
64.3875
228.919
50.4548
60.0416
72.1462
85.7869
94.4279
94.093
89.5941
81.077
67.7956
53.9157
36.7677
67.2681
162.472
152.361
145.122
133.509
116.784
97.8517
77.5341
59.3376
45.9164
36.1231
24.0171
23.7757
168.126
150.774
124.631
106.026
84.6024
63.2222
48.4977
38.7084
31.4899
24.4633
21.1305
21.0302
170.484
103.241
51.9054
20.55
4.32635
1.00403
5.12936
7.97533
8.57248
8.76808
9.74411
10.4008
108.546
156.665
156.712
148.401
134.354
125.28
110.031
95.2858
87.5191
79.8007
80.9629
79.4605
34.5104
64.0342
86.1146
144.723
163.521
165.892
163.521
165.387
163.753
164.342
164.406
165.892
21.2329
23.728
25.6883
40.3481
60.2673
85.0732
110.528
123.294
140.278
137.834
140.303
167.589
7.62777
4.26777
3.52591
4.08089
5.48013
8.42608
14.6057
26.8977
46.4966
72.4006
98.8737
187.992
63.9906
47.0625
45.4995
48.9226
55.1466
64.3502
76.8198
92.8836
103.224
103.69
104.177
116.303
168.704
180.447
191.394
196.437
199.109
198
193.739
187.273
176.397
158.662
131.247
102.33
220.617
263.089
262.938
253.759
237.169
215.041
189.661
164.964
145.958
132.106
117.724
96.7868
161.857
135.857
111.58
91.3388
86.1932
90.1609
97.4065
102.231
91.2469
50.0195
33.2149
24.4598
138.063
149.438
150.276
148.207
147.078
154.476
178.733
211.581
221.517
208.436
164.383
98.504
100.679
108.831
119.029
126.663
134.406
143.677
159.936
199.071
223.75
223.701
205.034
139.223
75.6905
67.3371
68.2608
74.2814
84.7376
91.4799
96.1225
113.816
165.283
197.908
194.948
173.851
9.77349
1.72569
1.2182
5.22069
15.3647
20.4667
28.3809
41.5232
57.0525
71.5116
81.4071
102.486
37.0863
8.03383
7.91072
16.556
43.5862
71.2218
84.2707
92.0369
96.7461
101.503
105.572
105.53
60.8144
51.7299
56.3281
67.2249
89.8613
103.142
103.138
98.5959
91.5677
83.4026
73.9012
70.8902
167.012
135.052
108.963
91.9365
75.6778
63.7712
58.1404
56.3258
53.061
47.6446
42.4173
39.8482
95.7313
97.9434
94.159
82.6452
75.6115
74.5605
71.983
68.3036
64.3227
57.6458
47.6773
38.3454
105.343
105.384
104.082
101.568
101.495
101.655
100.534
95.401
87.0169
77.2265
66.9947
56.1522
70.9072
70.7115
72.5052
73.7948
76.1163
82.5287
86.7162
85.6195
83.3562
79.954
75.628
68.255
38.6036
39.3
41.3352
44.4736
48.533
54.1259
60.3003
64.7989
67.5252
66.71
64.8719
62.5575
36.8522
37.634
35.4731
23.0814
6.59953
3.19547
4.01842
5.76055
9.60534
17.2947
29.4505
54.7983
52.3521
54.4228
59.5924
60.4645
48.2039
38.605
39.6583
44.4597
52.368
63.7515
81.9561
120.71
65.625
69.2347
86.3145
116.729
118.075
118.831
119.456
128.042
136.997
146.993
191.658
226.534
62.3913
62.2305
64.0608
76.9049
112.335
126.588
134.253
140.338
146.434
153.946
179.303
226.075
159.952
166.389
163.398
149.585
132.226
118.344
97.7532
62.3625
31.6358
31.5811
41.7271
41.6459
95.7701
93.369
92.022
89.5211
84.928
80.408
67.7747
50.2821
40.2951
45.8477
47.1736
52.8102
95.1661
91.7053
90.6456
89.3701
85.1517
78.2507
62.2532
45.8099
45.7378
37.8588
20.5471
39.8659
97.5607
95.698
94.423
92.6336
85.6331
70.8174
55.9868
44.8284
42.5195
26.2522
18.9334
28.8094
43.9716
59.7868
70.2452
155.729
77.4549
24.9568
24.967
24.6479
21.1321
21.1305
20.9697
21.1305
72.3422
79.9821
80.684
169.16
169.116
36.3198
26.545
26.5378
26.5304
21.733
21.0741
21.4359
96.774
78.526
72.9624
148.083
232.975
95.3957
25.7529
25.4189
26.0937
21.1845
20.814
21.1698
115.914
70.2503
61.2626
108.51
233.027
242.746
42.9402
22.2983
21.311
20.6741
21.0203
20.7527
21.3257
21.3532
21.6661
57.1978
138.157
138.259
75.6656
41.4881
52.5545
59.4962
104.062
243.212
23.3238
24.9991
28.9912
58.8407
99.7344
86.3436
38.0122
21.2012
27.6664
38.8767
106.254
314.92
24.794
31.0423
44.3487
80.2559
113.933
92.1235
40.0675
21.319
44.3438
39.1864
110.117
357.951
23.2812
38.2715
79.5954
150.196
186.962
64.9345
40.0645
52.8103
56.9377
38.4381
108.724
399.862
303.715
274.294
161.476
91.0573
59.4408
51.025
52.9237
77.1113
77.7509
64.2413
59.5399
59.1057
303.875
173.146
62.4228
41.7056
33.1168
35.6917
56.9042
109.023
103.903
48.4133
39.3337
41.4335
251.651
81.8765
31.2089
35.5246
31.4726
39.9114
75.5048
123.993
82.5719
28.3786
28.3971
32.6765
184.008
24.5352
23.3019
30.8304
27.5862
40.7807
123.85
142.18
56.726
28.3815
37.2912
39.089
49.5708
45.9385
47.1971
52.114
58.486
59.9159
70.4235
103.43
146.058
209.811
314.925
429.914
41.8586
41.9386
42.7277
45.4674
47.6582
51.2505
66.7775
96.3611
137.294
225.511
392.572
443.877
39.3896
42.5329
44.9032
45.7652
45.9588
55.0627
75.3741
100.861
126.376
168.579
337.975
459.37
48.2305
54.9835
53.159
47.2243
46.7753
62.2582
88.0071
111.566
118.482
125.144
330.549
462.501
257.199
77.2699
42.6502
35.0869
31.1951
33.242
38.1429
43.3756
38.7302
31.0821
30.4121
32.4132
255.872
67.4301
29.5058
24.6993
24.7025
28.3468
32.5705
37.5917
35.7254
30.4794
30.4116
34.9006
339.982
106.69
33.5391
24.6488
24.4335
24.5938
26.6935
31.6581
31.9235
27.2621
26.5933
33.0234
406.755
166.769
39.6817
24.8035
21.5696
19.5296
21.1775
26.8812
28.3823
25.0224
24.2707
28.8754
32.4458
35.2765
36.7645
43.0819
47.9974
48.1498
48.9638
52.9117
55.4971
55.7116
57.3246
72.2688
34.8797
33.5363
31.3451
42.3677
54.1959
57.7369
57.9717
58.0047
55.9135
74.0896
143.083
191.748
34.8962
28.3721
23.9646
34.8343
62.9744
89.5015
95.4793
90.3877
99.9507
196.257
267.37
268.711
33.4613
27.921
23.9606
26.6797
62.6791
126.461
161.041
159.693
198.107
264.098
269.061
268.855
68.644
55.4453
63.0024
71.5669
64.1869
68.2671
89.7983
100.273
100.947
99.4987
111.88
140.661
120.07
53.1021
48.5906
46.3165
29.3079
33.6238
66.316
90.5541
95.8302
95.2709
95.2737
95.2709
180.632
67.9231
54.3154
53.5347
17.2662
24.9294
60.5044
90.2941
99.2296
98.2829
96.202
95.3111
266.282
162.291
111.93
71.2174
7.34974
18.0257
52.3796
86.1688
100.493
101.137
98.6393
97.9095
98.5633
97.8412
96.8772
94.4325
83.8183
61.2195
47.0657
52.18
44.2472
21.7836
18.8856
18.9334
99.1404
99.3443
99.0563
95.1428
76.7956
50.7321
40.9939
52.1813
50.9835
23.3039
18.9334
18.9215
99.5547
100.62
100.675
92.5196
62.9523
39.2924
31.1349
50.86
51.0476
26.2906
21.1356
21.5185
100.232
101.264
100.701
78.2347
43.5507
34.7606
20.4353
34.5548
49.6275
28.689
25.1021
23.5874
100.878
101.674
97.6415
61.8336
26.4128
34.8134
20.2807
19.3321
36.6098
30.2369
27.9824
21.8514
101.343
101.839
93.9794
47.4654
18.0522
32.2864
27.0534
19.2927
21.2316
27.9913
27.5243
19.5581
101.645
102.035
92.0005
38.0273
12.6331
21.6353
24.4832
21.1599
21.1559
24.4399
26.9
16.8603
101.789
102.155
92.9917
31.6975
7.19416
7.872
13.4998
19.2512
23.3063
28.901
30.6665
12.5037
101.98
102.259
99.5187
25.9122
4.7319
3.14493
6.1142
16.6961
29.98
30.6749
30.6841
8.28924
102.245
102.463
102.505
20.6908
4.52405
3.1391
3.6553
6.342
10.435
15.9504
17.2613
8.29857
102.463
102.538
102.482
19.4753
8.40344
5.1754
3.64852
4.79153
8.39791
10.749
10.1654
10.2008
102.497
102.482
102.628
23.4743
20.1683
12.7838
23.6253
29.4833
46.5233
67.1651
67.1701
66.5454
123.818
65.2781
41.0549
57.577
128.733
250.478
143.226
30.3355
20.9624
20.969
20.6544
21.0242
123.898
76.5459
28.5927
27.9391
50.6713
243.715
282.93
89.9561
23.3942
20.8177
20.969
20.8667
123.866
104.762
29.478
10.6231
10.872
98.2028
291.693
282.53
83.5459
24.9919
20.8328
21.9557
102.337
104.711
61.5111
10.5179
10.4741
20.3579
179.272
295.749
282.232
83.1258
28.1679
32.1327
70.309
101.487
101.682
26.7846
11.323
14.6152
40.6658
216.731
295.822
269.583
82.2834
60.0679
59.0123
70.5727
101.628
56.0506
20.3957
17.1495
22.2097
65.4184
251.029
292.947
251.347
117.559
59.0119
59.6967
71.5845
55.5656
27.5469
20.4524
32.8348
55.5911
107.788
280.492
282.606
211.723
59.0123
59.757
47.9326
34.069
28.5213
38.9815
76.9823
77.0845
63.3323
137.754
251.641
218.577
103.362
134.649
67.4239
34.1711
44.9486
70.541
76.1677
58.2788
56.0887
56.178
114.609
149.123
245.679
329.412
286.481
233.768
254.179
252.474
134.64
62.2657
56.178
56.0887
56.1756
68.8387
354.427
414.961
451.246
470.679
467.597
450.594
388.121
322.172
287.956
270.429
290.072
274.235
369.194
417.216
460.719
474.768
474.786
474.792
474.81
474.816
474.834
474.841
474.858
474.865
24.213
58.5674
147.73
248.969
219.264
85.3925
57.4163
97.5073
59.1929
35.4675
95.8474
424.354
29.2768
90.9247
214.845
311.168
242.876
148.874
114.785
104.325
53.6323
35.4446
95.6548
427.718
41.4131
126.181
260.564
311.472
253.728
162.836
98.9668
58.4875
43.481
35.4288
106.356
448.384
62.9787
154.125
268.539
298.788
171.94
53.1131
41.2851
39.7231
35.5034
34.0978
116.188
467.06
96.413
167.214
248.056
206.535
72.0557
27.5855
30.0047
32.2229
28.2745
28.5398
126.555
474.974
139.123
166.047
179.842
99.958
36.1366
24.4522
25.1083
25.0356
23.5402
24.2836
154.002
474.933
172.721
156.64
111.344
45.0936
23.3758
23.3623
23.1509
23.2982
23.2449
23.8566
231.382
475.001
177.184
137.699
77.2832
32.4939
23.3623
23.061
23.2982
23.1509
23.2628
27.4912
341.04
474.951
133.446
99.304
56.1175
27.6369
23.1358
23.2982
23.0674
23.2412
23.1528
74.0467
425.066
475.01
62.3538
44.7673
28.7573
27.4494
28.4081
23.2148
23.2914
23.1528
70.561
304.877
472.542
474.963
217.331
176.237
205.952
267.259
319.586
306.517
308.456
373.837
467.073
475.007
474.957
474.988
474.882
474.89
474.922
474.915
474.946
474.936
474.966
474.955
474.988
474.965
474.984
474.965
161.825
15.6432
18.4966
22.8124
20.7767
32.9652
153.073
165.782
60.169
28.3669
61.5498
61.4244
218.046
15.6423
16.5653
16.4597
13.9048
21.3607
141.127
214.63
66.8803
29.781
61.9382
61.7413
294.907
15.6415
15.1936
12.2373
9.3249
11.621
108.51
224.608
74.2574
16.4891
41.8818
62.0813
341.584
17.3669
13.5456
9.99848
8.12909
8.36637
57.5101
224.462
109.658
13.3566
17.2124
45.8319
359.153
24.333
11.7113
8.79499
8.1113
8.12909
18.7112
224.608
166.551
13.2275
13.2456
19.2784
365.777
39.1561
10.3074
8.21993
8.12909
8.10206
10.2038
158.412
188.803
17.3474
13.2275
13.2456
374.744
71.2905
9.96595
8.12909
8.08591
8.12909
9.17171
62.2892
189.293
29.4119
13.2456
13.5927
374.808
135.954
10.9396
8.11556
8.12909
8.07216
8.66232
42.7754
177.856
52.1923
14.7726
16.6933
374.801
239.662
15.985
8.12909
8.07248
8.12909
8.329
28.816
116.869
73.6441
23.1816
23.6582
374.79
344.956
85.9022
18.9162
9.28853
8.38142
10.4969
20.3585
62.0528
79.651
37.8704
34.2885
374.78
374.769
358.169
150.178
66.0029
47.086
31.9189
24.7299
38.3682
79.9771
52.0186
43.8854
374.769
374.758
374.762
374.775
373.97
215.645
77.8288
36.1103
35.815
49.9474
52.2754
46.9578
61.5498
61.8619
57.8818
50.9624
50.1322
68.915
105.842
135.182
112.653
124.232
286.852
462.484
62.0178
61.5498
56.8367
53.866
54.5655
76.3565
131.634
155.532
87.95
128.555
259.551
442.518
61.5498
61.9063
57.1167
55.5115
60.5601
93.7905
166.371
157.878
87.069
120.95
229.694
424.961
57.1598
60.4893
61.1992
62.8659
73.7212
128.345
172.948
132.828
86.5356
116.2
226.035
409.256
38.8363
57.2975
69.5122
75.2432
90.8146
158.213
173.151
90.5318
87.069
115.708
228.082
399.008
30.5471
59.2439
76.9024
81.1014
92.3845
150.008
165.858
87.069
86.9082
133.181
228.683
395.765
33.2003
68.2008
77.1354
74.2028
74.8709
102.572
111.844
89.4321
90.5682
151.102
217.479
398.191
40.3523
68.5361
69.4083
48.5425
35.6852
36.3181
45.1303
93.0869
129.155
147.512
213.651
426.877
47.6838
63.8533
45.1072
26.8399
26.6858
30.061
54.6425
131.631
158.686
147.757
213.694
453.368
48.2623
53.8538
46.7341
64.6928
183.68
334.949
356.867
388.37
236.206
157.065
308.001
481.841
47.5816
57.1259
125.177
412.269
481.845
493.946
493.116
494.185
450.042
436.728
467.138
493.22
49.5658
89.3722
295.57
494.625
494.625
494.625
494.625
494.625
494.625
494.625
494.625
494.625
448.859
281.301
53.7111
23.8082
18.1774
15.229
17.1376
22.914
25.1344
23.6652
23.6588
27.4975
465.249
411.237
114.595
22.4428
15.1838
12.6952
14.5507
19.8141
22.1763
22.3236
23.6649
26.9272
471.62
477.504
281.772
22.3712
13.1883
12.0139
12.7964
16.7472
18.9508
19.4828
19.3276
18.6946
476.909
491.002
423.077
31.4206
12.1881
11.9765
11.9787
14.2143
16.004
16.2185
14.7058
13.8172
485.63
491.714
452.041
70.3
11.9811
11.9713
11.9468
13.0117
14.1923
14.1102
12.5598
11.7779
493.095
491.704
439.256
96.146
11.9696
11.9341
11.93
11.9052
12.491
12.4698
11.4948
10.9744
494.496
488.409
369.408
96.9562
12.3129
11.9287
11.9041
11.8887
11.8682
11.8531
11.2752
10.9416
494.526
480.436
276.491
73.3176
13.615
11.9209
11.9145
11.8906
12.2725
13.1264
12.1481
10.9548
494.501
473.034
227.857
49.2573
12.5142
11.9455
11.9155
11.9121
11.9295
13.75
13.763
12.7227
494.518
489.705
371.539
125.589
34.1968
16.8999
44.3641
57.6737
35.6314
17.8149
12.0403
10.9425
494.509
494.509
493.665
478.242
443.908
424.771
473.888
475.761
405.945
260.351
144.961
87.3859
494.507
494.501
494.501
494.493
494.495
494.485
494.49
494.48
494.484
492.264
481.532
467.451
32.8649
33.1488
27.0686
26.6031
53.4289
128.373
191.588
191.532
180.339
134.931
73.7693
44.8896
31.9094
40.6496
35.8647
29.1726
40.7811
98.8759
176.38
183.92
109.601
53.3952
37.5992
28.3315
22.7639
45.5263
47.5306
35.6535
36.7126
54.6101
122.258
146.911
76.0898
63.0361
38.4172
28.3453
20.6476
51.1497
62.1426
45.2317
37.3634
40.6839
70.8201
101.519
80.085
60.3462
37.3574
28.3315
18.7656
51.4193
71.2004
63.7989
46.1939
46.1596
69.4713
86.3722
77.2818
51.7215
36.8495
28.3453
14.3137
41.9067
71.1141
71.2004
65.9079
61.1172
65.3285
56.972
49.4048
51.0133
40.5284
29.9152
10.9548
17.1225
49.6185
65.1969
61.9578
54.8599
39.0242
20.8851
15.6579
38.1762
43.1486
49.9281
10.9065
10.9352
13.8463
23.6331
26.4804
22.7177
13.8831
10.9169
10.8746
14.6937
29.0917
69.7768
11.0671
10.8892
10.9162
10.8825
10.9087
10.9041
10.9138
10.8658
10.9057
10.8851
21.9319
97.1678
10.9033
10.9228
10.8838
10.9047
10.8779
10.9047
10.8617
10.914
10.881
10.9117
27.716
144.692
60.2217
51.4289
49.092
38.1652
18.3842
10.8771
10.9019
10.881
10.921
22.8338
58.6677
233.003
458.443
455.649
454.798
437.422
370.324
262.449
158.464
93.4862
83.2259
115.24
269.056
272.514
268.703
268.819
232.309
71.4373
2.52682
13.0055
45.0752
82.2199
101.111
103.251
99.803
98.9015
255.567
268.703
231.875
30.7175
2.02765
8.50988
36.6852
76.557
100.132
104.539
100.704
99.6718
137.108
148.894
100.083
3.17251
2.02801
4.93385
26.9664
69.5177
98.8215
105.843
101.177
99.9987
29.7228
21.6379
7.18719
2.13601
2.05615
3.07059
18.6371
62.7871
97.2064
106.582
101.465
100.406
4.27118
3.06971
2.37777
2.12304
2.29421
2.29805
11.3625
54.6794
95.2892
107.033
101.511
100.589
3.36319
3.03771
2.26424
2.12273
2.45235
2.31584
6.628
46.2407
93.3211
107.547
101.578
100.781
6.37314
4.26797
2.28548
2.27719
2.45355
2.44873
3.49574
37.5613
91.0636
107.577
101.362
100.916
14.0102
7.43919
3.00614
2.33074
2.42623
2.4027
2.27176
28.0552
88.4274
107.559
101.174
101.003
16.4904
11.214
5.02885
2.35413
1.74363
1.89665
1.66629
15.6383
85.6299
106.879
100.934
101.157
17.1855
11.9552
5.69127
2.35813
1.44006
1.55451
1.55505
5.02843
83.6986
105.906
100.848
101.26
21.4415
12.372
5.34777
1.85505
1.43652
1.43694
5.31598
20.5931
81.802
103.916
100.783
101.177
33.056
41.7584
59.7742
86.7002
115.883
115.858
74.765
85.0088
84.943
102.173
100.785
100.854
101.539
100.879
100.782
100.785
100.784
100.794
100.798
100.799
100.799
100.8
100.8
100.8
100.8
100.8
100.8
100.8
100.8
100.8
100.8
100.8
102.568
102.482
101.17
100.783
100.785
100.796
100.796
100.799
100.799
100.801
100.8
100.8
100.8
100.8
100.8
100.8
100.8
100.8
100.8
100.8
102.501
102.643
102.482
102.248
100.806
100.813
100.814
100.814
100.815
100.817
100.817
100.815
100.814
100.814
100.814
100.811
100.808
100.806
100.803
100.802
100.785
100.783
100.785
100.783
100.798
100.813
100.814
100.814
100.814
100.814
100.814
100.814
100.814
100.814
100.811
100.81
100.807
100.805
100.804
100.802
100.783
100.785
100.782
100.785
100.783
100.785
100.789
100.8
100.799
100.8
100.8
100.8
100.8
100.8
100.8
100.8
100.8
100.8
100.8
100.8
100.785
100.782
100.785
100.783
100.785
100.784
100.798
100.8
100.799
100.8
100.8
100.8
100.8
100.8
100.8
100.8
100.8
100.8
100.8
100.8
15.3412
11.6624
11.4889
11.6624
11.5948
11.9736
18.5503
40.5508
80.6516
105.583
97.9428
67.6149
40.8191
40.6766
46.9272
76.5139
129.156
177.764
206.867
216.93
50.1704
27.7508
14.3708
13.1518
15.0325
22.3068
40.3933
75.505
126.574
169.777
172.848
147.042
98.6343
90.1636
89.7902
87.2953
87.3472
88.8025
101.014
124.813
46.4926
45.0541
45.6799
48.7425
55.6521
76.4196
116.095
164.61
196.502
213.23
227.275
244.592
244.869
239.745
205.391
154.222
124.926
108.2
83.2309
57.7873
58.4593
91.4347
152.704
193.58
218.579
251.722
259.755
246.133
222.727
218.535
227.748
244.447
239.191
206.031
173.195
150.584
116.361
71.5388
45.2182
44.8829
150.431
276.189
365.215
339.311
343.488
343.523
322.788
183.406
100.219
89.2067
91.731
106.911
124.267
120.102
103.173
83.9403
72.17
71.0793
71.3717
78.8946
358.266
406.083
403.186
141.486
88.3071
88.3662
84.1331
81.3799
77.1681
75.7027
75.619
73.2401
72.5305
72.5067
72.4833
72.4312
72.3858
76.1709
89.491
103.839
)
;

boundaryField
{
    rotor
    {
        type            calculated;
        value           nonuniform List<scalar> 
192
(
1.00057
1.00054
1.00051
1.00045
1.00045
1.00067
1.00173
1.0019
1.00204
1.00234
1.0028
1.00334
1.00395
1.0046
1.00527
1.00661
1.00979
1.0191
1.0465
1.22627
5.93697
81.1909
151.87
154.096
1.0013
1.00115
1.0011
1.00103
1.00092
1.00091
1.00091
1.00091
1.00091
1.00141
1.00238
1.0024
1.00242
1.00243
1.00305
1.00654
1.01329
1.02526
1.03765
1.04441
1.04028
1.02554
1.01045
1.0082
1.01401
1.0099
1.00863
1.00755
1.00632
1.0048
1.0045
1.00448
1.00447
1.00439
1.00409
1.00388
1.00324
1.00293
1.00293
1.00293
1.00293
1.00293
1.00293
1.00293
1.00293
1.00293
1.00293
1.00293
1.00115
1.00114
1.00114
1.00114
1.00113
1.00111
1.00109
1.00109
1.00109
1.00109
1.00111
1.00146
1.00177
1.00224
1.00288
1.00358
1.00402
1.00408
1.00397
1.00396
1.00394
1.00396
1.00394
1.05797
1.00057
1.00058
1.00058
1.00058
1.00058
1.00058
1.00204
1.01673
1.09052
1.28524
1.5044
1.50791
1.05797
1.1197
1.30454
1.56751
2.54083
11.8792
40.8702
66.8678
84.2773
119.182
120.043
108.336
1.0013
1.00131
1.00093
1.00063
1.00053
1.00051
1.00052
1.00053
1.00053
1.00054
1.0005
10.2806
154.096
259.832
434.352
448.061
448.904
448.215
448.963
448.108
448.431
447.588
443.382
402.357
1.01401
1.01444
1.01437
1.0139
1.01203
1.01042
1.00921
1.00855
1.00818
1.00819
1.954
26.8814
1.0082
1.01956
1.50862
5.63423
21.3088
56.2785
109.516
166.572
213.787
250.545
267.117
267.522
1.00115
1.00122
1.00219
1.00231
1.00231
1.00231
1.00214
1.00186
1.00176
1.00176
1.08572
13.5536
1.00293
1.01454
1.06526
1.23295
1.63896
5.83892
120.146
136.463
136.291
136.454
136.277
136.353
)
;
    }
    stator
    {
        type            calculated;
        value           nonuniform List<scalar> 
260
(
23.4743
20.1683
12.7838
23.6253
29.4833
46.5233
67.1651
67.1701
66.5454
369.194
417.216
460.719
474.768
474.786
474.792
474.81
474.816
474.834
474.841
474.858
474.865
474.882
474.89
474.922
474.915
474.946
474.936
474.966
474.955
474.988
474.965
474.984
474.965
374.769
374.758
374.762
374.775
373.97
215.645
77.8288
36.1103
35.815
494.625
494.625
494.625
494.625
494.625
494.625
494.625
494.625
494.625
494.507
494.501
494.501
494.493
494.495
494.485
494.49
494.48
494.484
492.264
481.532
467.451
458.443
455.649
454.798
437.422
370.324
262.449
158.464
93.4862
83.2259
115.24
269.056
272.514
33.056
41.7584
59.7742
86.7002
115.883
115.858
74.765
85.0088
84.943
123.818
123.898
123.866
102.337
70.309
59.0123
59.0119
59.0123
103.362
245.679
354.427
369.194
18.9334
18.9215
21.5185
23.5874
21.8514
19.5581
16.8603
12.5037
8.28924
8.29857
10.2008
66.5454
161.825
218.046
294.907
341.584
359.153
365.777
374.744
374.808
374.801
374.79
374.78
374.769
424.354
427.718
448.384
467.06
474.974
474.933
475.001
474.951
475.01
474.963
474.988
474.965
448.859
465.249
471.62
476.909
485.63
493.095
494.496
494.526
494.501
494.518
494.509
494.507
462.484
442.518
424.961
409.256
399.008
395.765
398.191
426.877
453.368
481.841
493.22
494.625
268.703
255.567
137.108
29.7228
4.27118
3.36319