/*--------------------------------*- C++ -*----------------------------------*\
| =========                 |                                                 |
| \\      /  F ield         | OpenFOAM: The Open Source CFD Toolbox           |
|  \\    /   O peration     | Version:  2212                                  |
|   \\  /    A nd           | Website:  www.openfoam.com                      |
|    \\/     M anipulation  |                                                 |
\*---------------------------------------------------------------------------*/
FoamFile
{
    version     2.0;
    format      ascii;
    arch        "LSB;label=32;scalar=64";
    class       volVectorField;
    location    "1.5";
    object      U;
}
// * * * * * * * * * * * * * * * * * * * * * * * * * * * * * * * * * * * * * //

dimensions      [0 1 -1 0 0 0 0];

internalField   nonuniform List<vector> 
3312
(
(-0.852101 12.6599 0)
(0.017593 10.8603 -4.28802e-25)
(0.0330421 9.5955 -6.01039e-25)
(1.68198 9.00177 0)
(2.1647 10.3677 1.76142e-24)
(5.86823 11.4378 6.96193e-24)
(20.4478 11.4524 -5.62642e-23)
(30.6909 21.0276 -9.47399e-23)
(29.6135 27.7019 7.69219e-24)
(33.3616 31.0301 -1.01323e-22)
(33.183 33.0962 1.29559e-23)
(33.692 33.2126 -3.76338e-24)
(-3.909 15.0253 9.20756e-25)
(-2.51429 12.1777 8.33952e-25)
(0.175022 12.0415 0)
(5.89944 10.8233 -7.84916e-24)
(10.9599 11.7241 -7.32899e-24)
(19.7597 15.5582 -7.27928e-25)
(30.7239 17.1222 0)
(31.7193 20.7433 4.77633e-24)
(27.7249 26.0787 0)
(28.0608 29.998 0)
(27.7217 32.5825 0)
(27.6801 33.9195 0)
(-5.46729 16.4496 0)
(-3.6346 13.6244 0)
(-0.273791 12.9323 0)
(6.57938 10.8054 1.04996e-23)
(14.1305 9.8209 5.54966e-24)
(27.3173 9.47743 -9.61634e-24)
(35.221 10.7412 -4.62136e-23)
(35.3332 12.9769 0)
(32.501 17.1501 0)
(32.0674 19.4407 -5.92689e-24)
(29.299 23.3192 -5.1808e-23)
(26.1263 27.5574 0)
(-7.92912 18.4841 0)
(-5.65407 14.7084 -1.29744e-24)
(-1.15747 15.4027 0)
(7.51868 11.6739 0)
(18.4196 10.7356 -4.56928e-24)
(29.4913 7.80944 -2.24e-23)
(36.2936 6.60577 -3.02897e-23)
(33.0544 7.85501 0)
(28.1325 12.0284 0)
(23.682 15.0197 7.51631e-24)
(19.3725 16.2629 0)
(22.5802 17.4342 0)
(-9.56684 19.422 -2.52821e-24)
(-6.17436 16.1074 -4.64858e-24)
(-1.20051 16.1449 0)
(7.5749 13.2473 -8.21232e-24)
(18.1199 11.4287 -7.40609e-24)
(29.1284 7.1906 -5.55062e-24)
(33.6633 3.8975 -1.01446e-23)
(30.4536 2.72468 0)
(25.9951 5.34395 0)
(19.263 5.75458 -2.52945e-23)
(18.4668 7.28973 2.26412e-24)
(9.59537 9.78191 2.22693e-23)
(-12.3843 21.1307 3.43256e-24)
(-7.65366 16.9978 4.57144e-24)
(-1.74091 17.9072 0)
(8.3471 14.944 -6.79708e-24)
(19.3727 13.2744 -2.87023e-24)
(28.4431 9.22827 4.51364e-23)
(31.3887 5.36764 -7.03734e-24)
(28.5477 3.87085 0)
(21.2559 5.52794 0)
(14.6179 7.03167 -1.17171e-23)
(9.24644 7.26095 -7.22579e-23)
(3.62788 6.53725 0)
(-14.5557 23.7428 -4.51801e-24)
(-7.7986 19.187 -1.37035e-23)
(-0.195467 21.777 -5.14909e-24)
(9.95903 19.2228 4.12618e-24)
(20.4679 17.2073 -1.42727e-23)
(27.4948 13.4539 -4.47977e-23)
(28.7499 8.81916 4.61359e-23)
(25.5509 5.77923 -4.49025e-23)
(18.8452 6.02881 0)
(12.313 7.75703 -4.47563e-23)
(7.9805 8.58464 -1.01736e-22)
(2.05508 11.5595 -5.35125e-24)
(-15.0138 26.9258 8.11138e-24)
(-6.41487 24.2005 2.74931e-23)
(2.94318 29.7779 -1.88792e-23)
(11.8833 26.58 1.29565e-23)
(21.235 23.1159 -3.89692e-23)
(25.3789 16.2938 -1.01449e-22)
(25.2808 12.5046 8.21411e-23)
(22.1035 8.04776 -4.21042e-23)
(16.001 7.14965 -4.11623e-23)
(10.4866 8.32665 -8.0068e-29)
(6.17617 10.0799 -7.69495e-23)
(2.06401 12.3999 -8.6148e-24)
(-11.9969 30.1711 1.33808e-23)
(-1.10494 29.2305 -5.43976e-29)
(6.57956 34.6511 -9.87585e-29)
(11.4877 30.9134 0)
(17.5574 27.9909 -1.19501e-23)
(20.7552 18.4283 -6.15664e-23)
(21.3321 14.0228 -3.3883e-24)
(17.9959 10.1551 7.00063e-24)
(13.3474 8.48475 -2.93797e-23)
(9.717 9.28743 2.82094e-23)
(7.14547 10.8666 -2.48117e-23)
(4.63063 14.0847 4.61946e-23)
(-7.59847 33.2972 1.49199e-23)
(0.996185 33.8025 -1.13167e-23)
(6.81396 36.4921 1.64938e-23)
(9.48646 32.4872 -8.57811e-24)
(13.6378 30.0544 -5.57965e-23)
(15.9293 22.9442 -4.91967e-23)
(17.4993 16.319 9.50949e-25)
(15.2823 12.7383 1.20316e-23)
(12.4866 10.784 9.66507e-24)
(10.542 11.1275 0)
(8.78176 12.9167 5.47668e-25)
(8.16518 15.334 3.05438e-23)
(-1.31457 37.2369 4.7887e-24)
(4.322 37.508 1.303e-24)
(6.39834 34.4686 0)
(7.98065 31.2919 -3.30554e-23)
(10.7481 27.3759 -3.50831e-23)
(12.4884 23.4118 3.13602e-29)
(13.9817 17.9345 -2.14942e-23)
(13.1287 13.8488 -1.87161e-23)
(11.8161 12.2929 7.63684e-25)
(11.3313 11.9762 1.04701e-23)
(10.745 12.845 0)
(9.61341 14.9465 2.4717e-24)
(6.62809 33.0083 -1.05548e-24)
(-0.642587 31.3449 1.32461e-24)
(0.955058 31.3085 0)
(3.33916 28.0676 -4.99223e-23)
(6.18839 25.4652 -3.01966e-23)
(8.36196 22.0736 3.13555e-23)
(10.1208 18.724 -7.81202e-23)
(10.1947 14.4852 -1.68277e-23)
(10.4064 11.8417 2.29324e-23)
(9.72442 10.4991 0)
(7.81774 10.2343 -1.80913e-24)
(6.5989 11.3861 1.95898e-23)
(32.363 31.9013 6.49113e-23)
(29.4852 29.3391 -3.16997e-24)
(25.3937 25.2455 -1.0711e-22)
(20.2924 19.5625 -1.28881e-25)
(16.1191 15.3895 -1.58856e-23)
(11.6953 9.53303 3.80097e-23)
(9.94653 6.12721 5.86893e-23)
(6.37236 4.21734 4.23343e-24)
(5.51382 3.64296 0)
(7.55901 2.07372 -4.10517e-25)
(9.75775 -2.2859 -5.58964e-25)
(11.4431 -4.43647 4.87577e-27)
(26.6549 34.9508 0)
(23.2517 35.761 0)
(19.3053 35.2158 1.40936e-23)
(15.1714 31.2128 0)
(12.8581 25.2003 -1.54038e-24)
(10.9599 20.0257 0)
(8.13823 15.0241 5.55706e-24)
(5.62381 7.98301 -7.79935e-24)
(12.3888 1.22807 -1.38078e-23)
(14.637 -2.70995 0)
(15.9676 -2.22265 4.06775e-25)
(14.038 -4.65379 5.84502e-25)
(25.6804 32.1535 0)
(21.2141 36.6234 -7.53986e-23)
(17.2703 39.104 -1.00477e-22)
(13.902 37.3924 0)
(13.2706 30.4625 0)
(13.6504 26.0454 1.04146e-23)
(11.6382 21.1039 1.3627e-23)
(18.5705 7.64114 -2.2396e-24)
(19.0399 -0.540656 -4.45543e-25)
(17.9783 -2.49726 0)
(16.028 -1.38257 0)
(16.9146 -3.47173 -1.98734e-30)
(17.8136 19.7738 0)
(13.2822 28.9277 0)
(7.92187 36.0381 1.61308e-24)
(6.59779 38.0867 0)
(9.40648 32.6839 0)
(10.8944 27.6451 1.3205e-23)
(13.5056 21.3651 1.18251e-23)
(16.2652 9.17961 1.19104e-24)
(15.8451 3.33488 0)
(19.169 1.17524 0)
(15.6631 -1.08072 2.92632e-25)
(19.5132 -4.05313 3.50388e-26)
(5.02608 12.3573 -1.1562e-23)
(-1.4261 14.9458 -1.71452e-24)
(-3.71903 22.8784 -7.82227e-23)
(-3.12013 29.5769 0)
(5.04191 28.9884 0)
(10.0213 25.0936 7.67958e-24)
(9.90621 22.6288 2.14614e-23)
(13.5515 10.8508 2.11231e-23)
(18.8689 0.0493892 3.43788e-24)
(22.7894 -0.366623 0)
(17.9486 -0.469508 -1.06899e-24)
(23.3031 -4.28254 -9.86274e-25)
(0.132024 8.35192 -5.36948e-23)
(-6.04885 10.8605 2.27011e-23)
(-6.82338 16.9274 2.60879e-24)
(-2.01645 17.8344 0)
(9.19108 19.6629 0)
(10.1864 25.2038 6.13331e-23)
(16.0542 24.0712 6.13058e-23)
(22.505 9.52173 1.13825e-23)
(25.5294 -2.11444 -2.99514e-25)
(25.6274 1.51431 0)
(24.1609 -0.32824 1.26639e-24)
(25.0616 -1.26002 -2.93837e-26)
(-3.42246 12.1336 6.54264e-24)
(-4.2162 12.1495 6.3508e-23)
(-1.81198 12.2532 -1.4282e-23)
(4.67435 12.5054 0)
(9.07648 12.9738 1.6578e-23)
(16.6859 16.7343 -4.47125e-23)
(24.7813 21.8842 5.27683e-23)
(33.0399 12.3762 3.62813e-23)
(31.6777 2.08605 -2.71575e-24)
(26.2525 1.41111 -2.73405e-24)
(26.2678 1.67222 -4.03792e-24)
(26.7373 3.46802 -2.33845e-25)
(0.925098 15.1568 4.25337e-24)
(1.80893 16.1326 3.18343e-23)
(3.25063 15.2106 2.43824e-28)
(7.03322 11.7775 -1.37853e-24)
(11.7547 7.79306 -3.50306e-23)
(17.4089 8.1245 -3.06159e-23)
(23.1944 11.1478 2.81347e-23)
(29.1582 13.7387 7.83029e-24)
(28.9448 9.17935 -1.7616e-23)
(24.286 4.53253 -4.49729e-24)
(26.8083 -0.906268 -8.47788e-26)
(25.6108 6.52784 -4.62537e-25)
(4.87623 16.5568 -5.3459e-23)
(6.15112 17.6877 0)
(8.03375 16.7695 -2.69682e-23)
(12.2346 12.7927 1.71899e-23)
(15.2449 7.25937 2.06387e-23)
(17.9536 5.15242 1.73772e-23)
(17.8389 4.87294 8.18748e-24)
(22.6 5.64709 1.31463e-23)
(21.2134 6.8686 0)
(28.6893 6.78315 -2.0475e-28)
(20.5243 -0.622255 6.2516e-29)
(24.96 6.35013 1.99886e-32)
(8.36914 17.8151 -4.48394e-23)
(9.13311 19.036 -2.44436e-23)
(11.2835 18.5589 0)
(14.9777 15.3194 8.32053e-23)
(17.5098 9.63621 3.21494e-23)
(17.7837 6.44738 2.17075e-23)
(17.36 4.62858 1.9183e-23)
(16.654 4.86192 1.01686e-23)
(17.7151 2.4407 7.30375e-24)
(19.2595 5.50186 -3.05292e-24)
(19.8148 -0.14538 5.99694e-24)
(24.6728 -0.359784 0)
(9.44228 16.8412 6.83622e-24)
(10.2055 17.8082 0)
(12.6252 17.3385 3.48067e-23)
(15.9517 14.4209 9.5592e-23)
(17.5484 10.4094 -3.33628e-23)
(16.5846 6.94036 6.16838e-24)
(15.5798 5.41994 -1.28993e-28)
(14.2658 3.7573 4.44264e-25)
(15.6051 2.52304 5.97753e-26)
(13.6268 1.56072 0)
(24.7663 -1.58757 -5.90518e-24)
(20.2835 -3.34294 -3.0196e-24)
(6.17113 13.1318 -9.1516e-24)
(6.88862 14.203 -1.28432e-23)
(9.3029 14.2742 0)
(11.2604 12.3606 3.50498e-28)
(12.3239 9.76119 -1.91284e-23)
(11.1797 6.77577 -5.93213e-24)
(11.0633 5.29512 7.0423e-24)
(9.90762 3.30247 4.3164e-24)
(11.7537 2.18144 -1.1283e-23)
(11.4435 -3.20172 8.63469e-24)
(21.6128 -3.25443 -3.10354e-24)
(18.8133 -13.3321 3.25115e-24)
(12.6681 0.390535 1.14504e-25)
(11.3992 -0.884558 -5.19273e-25)
(10.6631 -1.45947 -5.54746e-25)
(10.052 -2.44464 0)
(9.9829 -3.10623 4.60657e-25)
(9.96652 -3.1965 8.06407e-24)
(10.2562 -2.65204 1.26705e-23)
(10.4018 -3.2933 1.23646e-23)
(10.3907 -5.54495 -5.58556e-26)
(12.3684 -12.1596 4.11639e-23)
(9.31293 -31.6519 1.35866e-24)
(16.7666 -47.2558 1.40642e-22)
(15.1318 3.24143 8.46389e-25)
(12.4743 1.50727 4.2843e-25)
(13.0622 -0.391293 0)
(11.812 -2.45668 -2.15211e-24)
(12.8806 -3.7743 -5.36813e-25)
(12.9514 -5.78704 2.62131e-24)
(14.6128 -8.5556 0)
(15.4916 -13.3447 -3.59419e-24)
(13.854 -22.4175 0)
(14.6883 -40.0336 0)
(14.6148 -47.5049 0)
(17.9649 -48.2335 0)
(16.8625 4.08877 0)
(13.5035 1.48103 0)
(14.7663 -1.6575 0)
(12.9801 -4.28595 2.92559e-24)
(14.2546 -7.48374 -8.35058e-25)
(14.6672 -11.1528 1.1439e-23)
(17.1278 -14.738 1.15636e-23)
(17.6058 -19.7568 0)
(14.2562 -32.6038 0)
(11.5456 -44.4027 -2.16165e-23)
(10.2318 -47.6971 -5.07218e-23)
(10.3408 -47.8706 0)
(18.6771 6.76486 0)
(14.5249 3.01015 -3.07125e-25)
(15.9572 -1.26176 0)
(14.8752 -4.68548 0)
(14.9266 -9.64549 -4.67704e-25)
(13.7208 -14.3445 2.12004e-23)
(15.5724 -18.6792 2.26048e-23)
(15.6594 -23.5185 0)
(12.5952 -35.8569 0)
(8.10721 -43.5375 -7.28579e-24)
(6.90316 -44.5209 0)
(6.76945 -42.6716 0)
(20.3725 7.94534 -2.70626e-24)
(16.5179 3.30822 -2.07001e-24)
(17.3735 -3.75421 0)
(15.866 -6.50677 -5.18539e-24)
(15.1854 -10.1456 -5.40047e-24)
(13.2119 -16.1469 6.05024e-24)
(13.3873 -21.1206 1.0448e-24)
(13.6448 -26.2281 0)
(11.1645 -37.1149 0)
(6.81802 -40.9901 -1.88128e-23)
(4.55456 -40.299 2.81953e-24)
(4.03759 -37.2053 4.77951e-23)
(22.7208 9.62454 1.39771e-24)
(20.0239 3.95099 2.22235e-24)
(21.643 -2.82924 0)
(17.8686 -4.6228 3.95303e-25)
(17.5249 -10.4914 5.00576e-24)
(14.9583 -17.6933 2.58128e-23)
(14.4664 -23.7639 3.56279e-23)
(14.2112 -31.1265 0)
(12.2171 -37.5924 0)
(8.10146 -38.4362 1.94288e-24)
(6.07859 -36.8664 -7.21858e-23)
(4.68994 -33.23 0)
(24.9482 7.41418 -2.44849e-24)
(25.1929 1.43616 1.92995e-24)
(26.766 -3.79149 -3.15915e-24)
(25.4665 -6.43919 1.60877e-23)
(24.3819 -14.0964 -1.32188e-23)
(21.0178 -21.4172 -3.114e-23)
(18.9513 -29.6468 3.9025e-23)
(17.4407 -34.6296 -5.60456e-23)
(14.0868 -36.9555 0)
(10.4703 -36.041 -7.14458e-23)
(7.45606 -33.5508 -7.78765e-23)
(5.81591 -30.3705 4.0032e-23)
(26.561 4.54566 1.64973e-24)
(29.4439 -0.741901 2.63185e-23)
(30.6512 -5.64653 -2.5342e-23)
(32.6682 -8.46009 3.60962e-23)
(31.0216 -15.2863 -6.40701e-24)
(28.4161 -23.5707 -1.17795e-22)
(24.4686 -31.0054 1.84414e-22)
(21.0763 -33.5475 -1.60143e-23)
(16.8219 -34.3427 -7.49898e-23)
(12.7323 -31.7233 1.83091e-28)
(8.71049 -29.4545 -1.10885e-22)
(5.90032 -26.2393 4.48614e-23)
(26.987 0.0340487 -4.31601e-24)
(33.2731 -4.49542 -2.83897e-29)
(35.5412 -9.19736 5.99152e-29)
(37.1707 -11.6769 0)
(36.092 -18.0734 -6.14409e-24)
(33.0255 -25.296 -1.00127e-22)
(28.5261 -31.3154 -5.1821e-23)
(23.8964 -32.1407 -5.31315e-23)
(18.6001 -30.6169 -7.00121e-23)
(14.2505 -27.2778 6.54588e-23)
(9.08375 -23.9343 -6.40189e-23)
(4.5548 -19.414 1.12143e-22)
(34.1156 -3.62609 -7.1559e-24)
(36.2954 -10.4729 -1.21686e-23)
(37.615 -11.4993 2.42538e-23)
(40.6024 -13.1058 1.1215e-24)
(40.9793 -18.3847 -8.90546e-23)
(37.2085 -24.3913 -1.14813e-22)
(32.1895 -28.7543 -4.30284e-23)
(27.4451 -27.0378 -4.27634e-23)
(21.8607 -25.5119 -2.88151e-23)
(15.5394 -20.1184 0)
(10.8511 -16.188 -3.13157e-23)
(5.43951 -11.1892 3.12684e-23)
(36.2564 -14.466 2.89314e-24)
(38.7473 -8.43801 1.52639e-24)
(39.9301 -13.4158 0)
(42.3897 -16.8755 -6.39817e-23)
(41.7266 -20.3846 -6.16303e-23)
(38.4674 -23.0783 -1.43812e-28)
(34.5755 -26.7096 -4.33619e-23)
(29.3869 -24.8856 4.18876e-23)
(23.7235 -19.9509 1.90599e-24)
(17.0104 -14.1379 5.35706e-24)
(11.3179 -10.5709 0)
(5.90326 -5.36391 -3.77302e-23)
(27.6105 -16.0563 5.61134e-24)
(37.1756 -14.5363 4.22582e-24)
(37.7783 -16.7908 0)
(39.86 -16.5315 -7.9309e-23)
(40.9877 -16.1551 -7.68948e-23)
(38.1349 -19.7114 5.77693e-23)
(32.921 -22.532 -5.62287e-23)
(26.1705 -13.4837 2.77638e-23)
(20.7086 -8.1153 2.82366e-23)
(15.2794 -3.7035 0)
(10.221 -0.0481871 1.349e-23)
(5.98932 4.27268 1.25837e-23)
(25.4646 -49.2172 -1.97592e-22)
(27.31 -55.3389 -1.67177e-23)
(29.265 -56.1492 2.85588e-23)
(28.2279 -56.6241 -2.57872e-23)
(26.6026 -54.7917 -8.41233e-23)
(24.0116 -52.5065 -3.15089e-22)
(22.2794 -48.6088 -2.14511e-22)
(19.3027 -42.8584 -2.49883e-24)
(17.5997 -36.2349 0)
(15.1483 -28.8925 -2.01542e-24)
(11.3917 -18.6381 -2.72364e-24)
(2.00766 -14.7767 9.87309e-25)
(25.3895 -45.1789 0)
(29.4501 -44.5068 0)
(32.9625 -42.1943 -1.94261e-23)
(33.1561 -39.9078 0)
(31.7211 -39.1355 1.59329e-23)
(29.3504 -37.2029 0)
(28.4718 -35.4537 -5.45675e-24)
(27.4489 -32.5595 4.20821e-23)
(26.7011 -28.801 2.29307e-23)
(25.7414 -26.0331 0)
(24.3521 -19.4043 -3.66995e-24)
(9.96249 -17.5648 2.7949e-24)
(14.5833 -45.1218 0)
(18.3129 -41.7797 2.2281e-23)
(22.7701 -36.1514 -3.06871e-23)
(25.0292 -32.5234 0)
(25.7179 -31.0905 0)
(25.2447 -29.2564 -5.59656e-23)
(25.5979 -27.8184 -1.77978e-23)
(26.7597 -25.7201 -5.05288e-24)
(27.6331 -23.4314 -1.7383e-23)
(28.5233 -22.7379 0)
(29.4891 -19.0884 0)
(14.1856 -19.6076 2.36785e-24)
(11.0544 -37.7098 0)
(17.0081 -31.3895 0)
(22.9071 -25.7141 2.25528e-23)
(25.2303 -24.6817 0)
(26.1151 -24.8823 0)
(26.6765 -24.7213 -4.63176e-23)
(27.3989 -24.1809 -3.29944e-23)
(28.8344 -23.0034 -1.76165e-24)
(28.8261 -21.5652 0)
(30.0246 -21.7294 0)
(31.2255 -18.4191 1.53608e-24)
(18.6879 -21.1148 -1.42568e-24)
(6.27705 -32.0204 -9.67839e-23)
(11.0107 -26.4553 3.19128e-24)
(15.9116 -22.7367 -2.42573e-23)
(19.5473 -22.9475 0)
(21.515 -22.8375 0)
(23.3469 -22.5482 1.51894e-23)
(25.4933 -22.1359 -2.69613e-23)
(28.4322 -21.8684 -1.16139e-23)
(29.1823 -21.1464 -4.59817e-24)
(31.2405 -21.74 0)
(32.4511 -18.858 2.4502e-24)
(19.3668 -20.8889 2.36063e-24)
(6.594 -28.9432 -5.56186e-23)
(11.0781 -23.9649 3.32708e-23)
(14.8169 -21.2688 -3.15479e-23)
(17.6422 -20.6441 0)
(20.3424 -19.7854 0)
(22.264 -19.3225 -1.51173e-23)
(24.0365 -19.5176 -5.09514e-23)
(27.3587 -20.332 1.8077e-23)
(28.598 -21.1668 -1.38485e-23)
(31.8246 -22.4746 0)
(33.6807 -19.8922 -2.95688e-24)
(19.9997 -22.5629 -2.78538e-24)
(6.16279 -27.0003 -4.63212e-23)
(9.64169 -22.4549 6.01762e-23)
(13.0525 -19.8735 -8.89407e-25)
(14.4509 -16.8647 0)
(16.6724 -15.4948 2.84669e-23)
(18.6263 -14.216 -3.46915e-23)
(19.7653 -15.1538 4.40047e-23)
(23.4797 -16.5461 2.65687e-23)
(25.5495 -18.9854 -2.66669e-23)
(31.4434 -21.9953 -4.95947e-25)
(34.0771 -20.2655 -5.07865e-25)
(20.1125 -23.6611 2.87917e-24)
(5.01302 -22.8614 -5.55733e-23)
(6.66365 -17.1712 5.72492e-24)
(10.3127 -12.7992 -2.47171e-29)
(12.394 -9.16988 2.97829e-23)
(13.7641 -7.69638 -1.42209e-24)
(15.4176 -7.46035 -1.28261e-22)
(15.7222 -9.5013 6.09961e-23)
(18.1404 -11.2935 5.23281e-23)
(20.1244 -15.6479 -1.27908e-23)
(27.2175 -19.0477 3.91517e-23)
(32.8709 -20.3232 -2.66504e-23)
(19.5579 -24.4681 -2.51158e-24)
(2.62593 -14.4397 -1.02685e-22)
(3.3344 -8.28389 0)
(5.76115 -4.4086 -3.26689e-23)
(7.97571 -1.57365 2.76184e-23)
(9.37684 -1.45002 3.63452e-23)
(10.6254 -1.99207 4.62385e-23)
(11.4238 -5.33071 5.93354e-23)
(13.5613 -7.52634 3.08849e-23)
(15.1734 -12.5693 0)
(22.6151 -13.5251 -6.45411e-28)
(28.4377 -17.2728 1.00437e-28)
(17.9539 -25.8546 1.38638e-29)
(1.70213 -7.06572 -1.41586e-23)
(0.878646 -1.89873 4.33922e-23)
(2.5039 2.41556 0)
(4.48337 4.4496 6.05618e-23)
(5.89192 3.7907 3.41158e-23)
(6.58698 2.27523 4.37218e-23)
(6.54926 -1.77651 7.88829e-23)
(7.79579 -3.15543 6.3631e-23)
(10.5823 -7.15007 3.94413e-23)
(17.7558 -7.20836 -2.06154e-23)
(20.5908 -16.3395 3.06267e-23)
(13.231 -25.0829 2.73329e-24)
(1.66631 -0.426103 3.15867e-23)
(-0.149028 4.90792 0)
(0.169949 7.66444 -1.51411e-23)
(1.22633 7.9786 2.50619e-23)
(1.97803 6.84291 -2.56363e-23)
(2.45463 4.77115 -3.44534e-24)
(3.14396 2.71237 -3.05943e-28)
(5.23362 2.1343 1.14621e-23)
(7.20569 -1.23918 3.49348e-23)
(11.8274 -4.14522 0)
(12.2728 -15.3234 -6.83775e-24)
(7.61143 -20.6641 -1.0267e-25)
(1.89422 6.9809 -3.04996e-23)
(-0.331377 9.19055 1.21229e-23)
(-0.154942 9.23591 0)
(0.388629 8.81031 4.61112e-29)
(0.84603 7.65696 -1.57217e-23)
(1.22357 6.10916 -6.03272e-23)
(1.2719 4.72448 2.23663e-23)
(1.57965 2.48871 1.85351e-23)
(3.05966 -1.52581 1.98677e-23)
(4.48662 -5.97491 -1.14815e-23)
(6.57598 -16.1775 -4.83537e-24)
(-4.05709 -22.6107 -2.62347e-24)
(1.41414 -12.3208 0)
(-0.143812 -10.3152 -1.77353e-25)
(-0.933034 -9.27568 -3.42768e-25)
(-1.79823 -8.19803 0)
(-2.40702 -8.06899 2.66616e-25)
(-3.96658 -7.5987 1.0874e-23)
(-5.77468 -9.00561 2.27779e-23)
(-7.50174 -9.77488 4.11699e-24)
(-9.01404 -10.7899 3.26795e-24)
(-9.51519 -11.4308 -2.08873e-24)
(-9.79965 -11.367 4.56647e-24)
(-10.0311 -10.6496 1.16504e-23)
(4.86311 -15.6033 1.10982e-24)
(2.81147 -11.8097 1.34966e-24)
(0.812782 -11.8633 0)
(-1.18732 -9.8654 1.11519e-24)
(-3.04864 -9.78488 -5.59865e-24)
(-6.59975 -8.71983 -1.52397e-24)
(-9.66367 -10.0063 0)
(-11.0331 -12.1416 -2.36849e-24)
(-11.9995 -14.0491 0)
(-12.0182 -15.1446 0)
(-11.9628 -15.5153 0)
(-11.6382 -15.3913 0)
(5.54666 -17.574 -1.08757e-29)
(4.56552 -13.7769 0)
(1.01397 -14.1404 0)
(-0.878073 -11.7114 1.54788e-25)
(-3.57986 -10.7758 2.97389e-24)
(-8.82103 -8.66016 3.43698e-24)
(-13.533 -8.70295 3.08124e-23)
(-15.6492 -9.89509 0)
(-15.3133 -12.537 0)
(-13.8446 -14.7236 -3.74295e-24)
(-13.1603 -16.1516 7.34524e-25)
(-12.8983 -16.3783 0)
(7.13889 -18.9521 2.8585e-25)
(5.90114 -16.5551 5.52202e-25)
(1.88849 -17.2375 0)
(0.629799 -14.2867 0)
(-3.32399 -13.6236 -4.2439e-24)
(-10.362 -10.6221 1.71148e-23)
(-15.9924 -10.3963 4.33186e-23)
(-17.8461 -11.2214 0)
(-17.2093 -13.5544 0)
(-15.9504 -15.6989 -1.27968e-23)
(-15.5127 -18.02 0)
(-16.381 -19.9346 0)
(6.70526 -20.4923 -1.96734e-24)
(5.23226 -19.1306 -8.79987e-25)
(2.45691 -19.7551 0)
(1.10558 -17.0263 1.18545e-23)
(-4.74388 -16.7394 -4.82523e-24)
(-13.0712 -14.4072 1.31521e-23)
(-20.5847 -13.8846 -2.8536e-24)
(-22.3689 -13.7024 0)
(-21.2499 -15.6136 0)
(-20.0281 -17.2985 2.58864e-23)
(-21.3392 -19.1605 1.78618e-24)
(-29.3895 -20.8475 -7.55197e-24)
(6.51824 -21.962 2.11176e-24)
(5.15765 -20.5736 3.18943e-24)
(3.18026 -21.4486 0)
(0.218859 -21.4315 6.43011e-24)
(-7.87828 -21.2408 -4.64194e-24)
(-18.422 -20.5765 4.81876e-23)
(-24.1353 -19.634 4.49404e-23)
(-24.404 -18.6556 0)
(-23.0812 -18.8293 0)
(-23.1908 -19.1763 -5.8662e-24)
(-30.2307 -19.325 -5.99459e-23)
(-39.0111 -20.0206 0)
(6.8658 -24.0093 -7.10289e-24)
(4.91461 -23.339 -1.76596e-24)
(0.300506 -24.6206 -6.5106e-24)
(-3.50582 -25.7928 1.58114e-23)
(-13.4371 -26.8927 -1.73294e-23)
(-22.7389 -25.9921 -4.2988e-23)
(-25.7625 -24.3466 3.44421e-23)
(-25.4595 -22.6574 -2.91793e-23)
(-25.0698 -22.0747 0)
(-28.8727 -20.7511 3.27546e-23)
(-37.6411 -19.3366 -8.66878e-23)
(-40.5688 -18.7411 -2.5016e-23)
(4.21204 -25.57 -6.2551e-24)
(2.39958 -28.3048 2.81632e-23)
(-2.23752 -28.945 -2.20607e-23)
(-8.01817 -30.8318 3.5092e-23)
(-18.1677 -31.9152 -7.32252e-24)
(-24.353 -31.1496 -8.35183e-23)
(-26.2899 -29.5512 1.14789e-22)
(-26.5577 -28.2062 -7.34387e-24)
(-27.9415 -26.3581 -4.08985e-23)
(-33.6268 -23.5311 1.26221e-27)
(-38.4881 -20.0177 -1.41934e-22)
(-39.5753 -17.9864 -2.8186e-23)
(2.17243 -27.9047 3.31521e-24)
(-0.0595384 -32.8702 -8.67898e-29)
(-4.92311 -33.5846 2.38751e-28)
(-12.3629 -36.2812 0)
(-21.3706 -35.8627 -2.7601e-24)
(-26.3635 -35.1007 -6.99854e-23)
(-27.7593 -33.2236 -3.24153e-23)
(-28.3381 -31.8711 -3.27195e-23)
(-29.8418 -29.9719 -4.87599e-23)
(-34.8624 -26.3227 4.44622e-23)
(-37.994 -21.3919 -4.96552e-23)
(-36.6475 -18.1873 1.46254e-22)
(-4.94058 -33.8907 1.0738e-23)
(-4.64815 -37.4876 -1.13879e-23)
(-9.33113 -38.7484 4.24185e-23)
(-16.0111 -39.9908 8.22301e-24)
(-23.774 -39.3752 -6.01118e-23)
(-27.2994 -38.9736 -4.84608e-23)
(-28.3449 -38.1468 -1.9449e-23)
(-28.8867 -36.955 -2.15352e-23)
(-31.167 -34.1348 -2.77936e-23)
(-36.0582 -30.3338 0)
(-35.681 -24.6321 6.23843e-23)
(-32.0928 -20.636 1.96349e-22)
(-11.5089 -29.0573 5.03527e-24)
(-5.43351 -35.7431 2.32541e-24)
(-9.54556 -38.2009 0)
(-16.7843 -40.0307 -5.64464e-23)
(-23.9242 -38.5984 -4.29909e-23)
(-27.125 -37.9554 2.27457e-29)
(-27.5035 -36.8929 -1.70093e-23)
(-30.6551 -38.3918 2.01687e-23)
(-32.8069 -37.48 3.27999e-24)
(-36.0741 -34.3603 -2.39775e-23)
(-33.0906 -28.7088 0)
(-26.4733 -23.1542 -8.74495e-23)
(-10.0503 -26.4788 8.83336e-24)
(-10.4916 -29.7055 1.02899e-24)
(-12.8102 -32.0169 0)
(-17.7343 -34.5001 -7.17002e-23)
(-22.7524 -33.5233 -2.18012e-23)
(-25.4407 -32.5304 1.94363e-23)
(-27.1564 -31.3285 -2.55382e-23)
(-28.5297 -31.9234 2.86177e-24)
(-27.5162 -30.7555 1.47386e-23)
(-31.3033 -33.6435 0)
(-23.9709 -30.4457 -1.07391e-22)
(-18.8549 -26.197 -5.55738e-23)
(-9.83986 -9.60184 -1.67056e-23)
(-9.17997 -8.6835 -2.33799e-24)
(-8.6256 -7.50685 1.64829e-23)
(-8.41849 -6.63116 -1.6689e-24)
(-7.72246 -5.74997 1.62874e-23)
(-7.79223 -4.56317 1.95426e-23)
(-8.77741 -1.89859 5.39433e-26)
(-11.3709 0.0627876 -6.65241e-25)
(-14.011 -0.213533 0)
(-15.2019 -1.09116 1.16212e-24)
(-15.1627 -1.70233 1.08971e-24)
(-13.9497 -1.07679 -1.07705e-25)
(-11.3355 -14.8434 0)
(-11.5658 -13.3116 0)
(-11.6075 -11.0214 -6.06869e-24)
(-11.8242 -9.49511 0)
(-11.482 -7.87022 9.7764e-25)
(-11.9453 -5.49444 0)
(-12.6663 -2.72428 -7.68383e-25)
(-13.9728 1.08186 3.31598e-24)
(-14.142 0.901262 4.35799e-24)
(-14.179 -0.411131 0)
(-14.1463 -3.49231 -5.73295e-25)
(-15.7617 -4.01126 -6.53445e-25)
(-12.9897 -16.3575 0)
(-13.8753 -17.8302 2.67074e-23)
(-16.2133 -17.1912 2.44434e-23)
(-17.2991 -15.9094 0)
(-18.6069 -15.0431 0)
(-18.8692 -11.2025 1.71689e-24)
(-19.4563 -6.51554 -1.81731e-23)
(-18.0166 -1.6824 7.51819e-24)
(-15.123 -0.0403155 8.42095e-24)
(-13.6811 0.185252 0)
(-13.613 0.918885 0)
(-16.284 -1.47116 0)
(-21.9054 -21.1643 0)
(-28.9175 -21.3712 0)
(-32.5 -22.7752 2.60068e-23)
(-35.4549 -22.5817 0)
(-36.6693 -22.5897 0)
(-36.6808 -20.6975 -1.0604e-23)
(-34.0511 -16.7974 -4.48049e-23)
(-28.7226 -12.5008 -1.06891e-23)
(-21.2367 -7.67735 0)
(-15.7131 -2.34988 0)
(-14.8864 1.08273 2.45717e-24)
(-16.0619 0.913284 0)
(-38.1578 -22.0486 -5.25923e-23)
(-40.7733 -24.6911 3.15387e-24)
(-42.6779 -26.0674 2.2943e-23)
(-43.9887 -27.1742 0)
(-44.0062 -28.2299 0)
(-44.0002 -28.5612 1.34897e-23)
(-40.7922 -28.3366 -2.12177e-23)
(-35.5948 -27.4884 -6.76516e-24)
(-29.6829 -23.8026 -1.82921e-23)
(-23.5123 -12.069 0)
(-18.1485 -0.000225512 1.14732e-24)
(-18.4725 4.48066 -2.12392e-24)
(-41.3298 -20.6517 -5.00166e-23)
(-42.0499 -22.8739 6.40166e-23)
(-42.9503 -24.143 2.53529e-23)
(-44.226 -25.4206 0)
(-45.4374 -26.6503 0)
(-44.9509 -28.8507 5.06226e-24)
(-41.1669 -31.2629 1.34082e-23)
(-38.3991 -31.8923 -2.30842e-24)
(-34.2529 -30.2248 -6.47083e-24)
(-31.2745 -23.2746 0)
(-24.8542 -6.89117 -7.28166e-25)
(-22.117 3.76262 -9.51423e-26)
(-40.9651 -18.6771 4.17718e-24)
(-41.2676 -19.6412 9.21429e-23)
(-40.997 -20.5392 4.26649e-23)
(-42.1473 -21.1178 0)
(-42.7564 -24.1007 -8.69421e-24)
(-42.4977 -30.1182 3.91827e-23)
(-38.7345 -33.6375 -2.10016e-23)
(-37.0269 -35.2402 3.87891e-24)
(-33.281 -34.7986 -1.01865e-23)
(-31.9482 -27.9911 5.30416e-25)
(-28.0137 -14.7542 -5.01631e-25)
(-21.8115 -1.2419 1.01127e-26)
(-38.129 -16.2481 9.96725e-24)
(-36.241 -16.3234 6.99393e-23)
(-34.4982 -15.9365 -6.68711e-28)
(-34.6345 -16.0269 5.5294e-23)
(-38.0915 -17.8934 5.90118e-23)
(-37.0555 -25.8512 9.79731e-23)
(-36.0366 -32.8099 -1.22815e-23)
(-33.86 -36.0529 4.93899e-23)
(-32.4592 -37.0569 8.18673e-25)
(-31.3015 -32.4358 9.23101e-24)
(-28.2268 -20.9756 -7.80288e-24)
(-23.2557 -1.79577 1.92978e-25)
(-32.5315 -15.6805 -1.55472e-22)
(-29.6199 -13.1877 0)
(-25.534 -11.3862 -7.7685e-23)
(-24.8447 -5.32567 5.28332e-23)
(-30.2446 -10.0758 -6.89308e-23)
(-25.8958 -17.1137 -3.86959e-24)
(-28.5652 -28.5798 5.88025e-23)
(-27.3418 -34.8692 4.36708e-23)
(-27.7431 -36.9841 0)
(-31.6045 -34.876 -2.40383e-28)
(-29.4269 -25.4165 2.95003e-29)
(-27.5713 -5.08599 9.37255e-33)
(-26.357 -16.4899 -1.61541e-22)
(-22.724 -14.5234 -9.43921e-24)
(-13.9416 -10.733 0)
(-16.3955 -1.84029 4.31482e-23)
(-15.7231 -0.180069 -4.70453e-23)
(-14.6651 -7.76623 -3.25585e-25)
(-14.3803 -18.2663 1.24807e-22)
(-14.711 -27.3018 1.2638e-22)
(-18.4763 -30.1437 7.37621e-23)
(-25.9163 -30.7351 -8.10494e-24)
(-28.4868 -27.0894 2.56175e-23)
(-30.3626 -7.72422 2.46127e-24)
(-21.641 -18.5135 1.02391e-22)
(-16.1425 -17.0206 0)
(-10.3728 -13.9392 -5.83817e-24)
(-14.5287 -3.21722 1.52368e-22)
(-9.26524 2.13771 2.09677e-23)
(-8.83854 -2.67457 6.95048e-23)
(-0.771308 -11.5885 -3.99244e-28)
(-0.00989925 -19.2435 5.74296e-23)
(-3.63545 -21.8888 5.02013e-23)
(-10.5915 -23.088 0)
(-16.451 -22.3605 -9.35644e-24)
(-28.2216 -10.2633 1.76893e-24)
(-14.3914 -18.4787 1.07549e-22)
(-9.3108 -16.3481 -1.17207e-22)
(-9.4379 -16.4068 0)
(-13.6732 -10.385 6.2561e-29)
(-11.8618 -3.59117 6.65875e-24)
(-3.04902 -4.37578 1.17405e-22)
(7.16135 -11.4436 -2.6881e-23)
(6.56927 -14.809 6.51953e-23)
(2.27988 -16.2261 4.42208e-23)
(-4.73711 -15.3753 -1.39801e-23)
(-13.9414 -11.2424 -8.02861e-24)
(-26.3706 2.49022 -1.0076e-24)
(-13.8636 2.95895 -3.46239e-25)
(-15.0558 3.5401 -1.53839e-24)
(-15.3945 3.6837 -1.52832e-24)
(-15.4027 3.70599 0)
(-14.6161 4.86422 1.8029e-24)
(-14.649 5.61472 9.72523e-24)
(-14.9628 5.38741 5.82749e-24)
(-14.8786 5.33261 -4.68199e-24)
(-15.5804 7.76589 4.94927e-24)
(-13.4907 16.9816 1.6864e-23)
(-14.952 26.7694 9.6002e-24)
(-19.4213 30.2709 4.12771e-23)
(-14.6307 2.59957 -7.25729e-26)
(-15.2224 2.75377 -1.26047e-24)
(-15.4744 2.55106 0)
(-15.9327 3.01691 -7.2489e-24)
(-16.2 4.5322 -1.44621e-24)
(-15.995 7.00752 5.34884e-24)
(-17.3968 9.45046 0)
(-17.9434 15.1809 -8.41302e-24)
(-18.5468 24.264 0)
(-19.0345 30.5741 0)
(-19.365 33.1224 0)
(-21.4775 35.5356 0)
(-15.351 2.75314 -2.24325e-30)
(-14.5156 4.21999 0)
(-14.2745 4.38657 0)
(-14.6081 5.04731 6.15987e-24)
(-15.1656 6.74362 -5.3009e-25)
(-14.92 10.2942 1.26885e-23)
(-16.0982 14.882 1.99337e-23)
(-16.9292 20.8202 0)
(-16.7689 26.1493 0)
(-16.1367 31.0759 -1.59048e-23)
(-15.3042 34.8702 -2.08898e-23)
(-16.3786 38.6275 0)
(-17.2857 -1.23827 -1.8277e-25)
(-14.6727 1.5758 -2.44542e-25)
(-13.6807 2.9939 0)
(-13.3009 4.72523 0)
(-13.5362 6.83489 -2.67116e-24)
(-12.8841 11.7015 1.45142e-23)
(-12.5411 17.2229 2.01527e-23)
(-12.8616 22.2852 0)
(-11.8416 27.4208 0)
(-12.3069 32.6195 -4.88924e-25)
(-11.6047 36.2747 0)
(-12.2442 39.3138 0)
(-19.4721 -2.67519 -8.43106e-25)
(-15.4683 -0.155855 -2.80712e-24)
(-13.436 3.01965 0)
(-12.6349 5.50232 -1.33059e-23)
(-11.5945 7.8602 -1.11711e-23)
(-11.1423 12.8257 -3.90363e-24)
(-10.5797 18.514 1.04023e-23)
(-10.1074 23.5922 0)
(-9.34557 29.3134 0)
(-8.69331 34.0499 -2.89988e-24)
(-8.07174 36.2464 7.21795e-25)
(-7.58043 37.9445 4.39164e-23)
(-21.0141 -6.1716 1.89645e-24)
(-16.4109 -4.68471 2.78487e-24)
(-14.5214 0.842859 0)
(-12.9443 3.84863 -1.22546e-23)
(-13.7436 7.86239 1.27346e-23)
(-11.7789 15.0557 8.85577e-24)
(-10.7574 21.0822 3.50891e-23)
(-9.5417 26.0587 0)
(-8.87971 31.7132 0)
(-8.26175 34.0596 9.11785e-24)
(-6.15925 34.3281 -1.5909e-23)
(-4.5392 35.2341 0)
(-22.3039 -8.4527 -2.74e-24)
(-18.4851 -6.0788 -1.58567e-23)
(-17.579 1.09298 -3.07427e-24)
(-15.9054 7.13574 -7.15173e-24)
(-17.1205 11.9871 4.615e-24)
(-15.8406 16.9417 3.08994e-24)
(-14.1498 22.886 8.7964e-25)
(-12.1413 29.5279 -1.21299e-23)
(-10.3079 33.9101 0)
(-8.86648 33.7137 1.55916e-23)
(-7.12939 32.3498 -8.60774e-23)
(-3.97629 31.8336 2.63285e-23)
(-24.229 -11.2966 3.63476e-24)
(-23.0965 -7.64307 9.14695e-24)
(-23.1612 1.76983 -3.92758e-24)
(-23.441 8.40271 2.03044e-24)
(-22.9251 13.8541 -1.82222e-23)
(-21.808 20.3529 -3.5308e-23)
(-18.9014 27.1512 9.81826e-23)
(-16.5273 31.8557 1.15473e-23)
(-13.2893 33.415 -1.90622e-23)
(-11.1791 31.7155 6.41827e-28)
(-8.80658 30.107 -5.08089e-23)
(-5.09287 28.994 1.67706e-23)
(-27.8646 -9.70254 5.45524e-24)
(-31.1082 -3.9104 -1.33551e-28)
(-31.0208 6.32239 4.96489e-29)
(-31.4779 13.1985 0)
(-30.4243 17.9395 -7.98378e-24)
(-27.3757 22.212 -6.23467e-23)
(-23.113 26.8555 -2.63537e-23)
(-18.815 30.716 -2.0302e-23)
(-15.3481 31.4373 -2.94194e-23)
(-12.1717 29.0471 1.55759e-23)
(-10.9822 26.2939 -3.71617e-24)
(-7.82898 24.3592 2.50173e-24)
(-31.8808 -4.52705 5.93743e-24)
(-36.5295 -1.12049 -9.19451e-24)
(-37.7502 7.43004 3.65348e-23)
(-35.792 13.3124 -4.06431e-24)
(-34.283 16.5603 -6.32e-23)
(-31.1858 20.6489 -7.01419e-23)
(-26.0692 26.0375 -2.23322e-23)
(-20.7298 29.1628 -1.57501e-23)
(-16.0308 28.0778 -6.98089e-24)
(-12.1123 25.4519 0)
(-9.54418 23.9132 -1.01792e-23)
(-8.1825 23.0503 1.21461e-23)
(-31.8054 2.04351 -1.17512e-24)
(-36.8483 3.31287 -3.53785e-25)
(-36.9634 8.56393 0)
(-35.7284 12.8054 -4.62458e-23)
(-35.2273 16.7923 -3.91145e-23)
(-32.9828 19.9265 -1.18725e-28)
(-28.3477 23.5068 -3.43953e-23)
(-22.2583 24.7146 8.7511e-24)
(-16.8882 22.6808 1.45511e-24)
(-13.088 21.4159 1.96521e-24)
(-10.1918 20.5335 0)
(-8.06703 19.9707 -3.86822e-23)
(-30.9502 3.77833 2.51753e-24)
(-35.3229 3.4492 4.79891e-25)
(-34.8856 6.79495 0)
(-32.364 12.4271 -6.32514e-23)
(-30.7618 15.5076 -2.32566e-23)
(-28.7804 16.5127 1.79937e-23)
(-26.0168 18.8496 -5.64376e-23)
(-21.5446 19.6465 3.69522e-24)
(-17.3085 19.5584 2.62287e-23)
(-13.3417 19.4839 0)
(-10.4322 19.3597 2.80473e-23)