/*--------------------------------*- C++ -*----------------------------------*\
| =========                 |                                                 |
| \\      /  F ield         | OpenFOAM: The Open Source CFD Toolbox           |
|  \\    /   O peration     | Version:  2212                                  |
|   \\  /    A nd           | Website:  www.openfoam.com                      |
|    \\/     M anipulation  |                                                 |
\*---------------------------------------------------------------------------*/
FoamFile
{
    version     2.0;
    format      ascii;
    arch        "LSB;label=32;scalar=64";
    class       volVectorField;
    location    "1.5";
    object      U.air;
}
// * * * * * * * * * * * * * * * * * * * * * * * * * * * * * * * * * * * * * //

dimensions      [0 1 -1 0 0 0 0];

internalField   nonuniform List<vector> 
3312
(
(-0.852101 12.6599 0)
(0.0175929 10.8603 -4.28802e-25)
(0.0330421 9.5955 -6.01039e-25)
(1.68198 9.00178 0)
(2.1647 10.3677 1.76142e-24)
(5.86823 11.4378 6.96194e-24)
(20.4478 11.4524 -5.62644e-23)
(30.6909 21.0276 -9.47403e-23)
(29.6135 27.7019 7.69222e-24)
(33.3616 31.0301 -1.01324e-22)
(33.183 33.0963 1.2956e-23)
(33.692 33.2127 -3.7634e-24)
(-3.909 15.0253 9.20757e-25)
(-2.51429 12.1777 8.33953e-25)
(0.175023 12.0415 0)
(5.89944 10.8233 -7.84917e-24)
(10.9599 11.7241 -7.32899e-24)
(19.7597 15.5582 -7.27929e-25)
(30.7239 17.1222 0)
(31.7193 20.7433 4.77634e-24)
(27.7249 26.0787 0)
(28.0607 29.998 0)
(27.7216 32.5826 0)
(27.6801 33.9196 0)
(-5.46729 16.4496 0)
(-3.6346 13.6244 0)
(-0.273791 12.9323 0)
(6.57938 10.8054 1.04996e-23)
(14.1305 9.8209 5.54966e-24)
(27.3175 9.47787 -9.61929e-24)
(35.2225 10.7431 -4.62353e-23)
(35.3358 12.9817 0)
(32.5069 17.1593 0)
(32.0673 19.4433 -5.92838e-24)
(29.2989 23.3193 -5.18085e-23)
(26.1262 27.5575 0)
(-7.92912 18.4841 0)
(-5.65407 14.7084 -1.29744e-24)
(-1.15749 15.4027 0)
(7.51772 11.6739 0)
(18.4174 10.7338 -4.57574e-24)
(29.5168 7.79761 -2.24678e-23)
(36.3294 6.60294 -3.03695e-23)
(33.1031 7.85822 0)
(28.2448 12.0428 0)
(23.754 15.0654 7.56834e-24)
(19.3655 16.3109 0)
(22.5751 17.4413 0)
(-9.56684 19.422 -2.52822e-24)
(-6.17436 16.1074 -4.64859e-24)
(-1.2023 16.1449 0)
(7.56054 13.2417 -8.23053e-24)
(18.1657 11.3672 -7.45268e-24)
(29.2348 7.11818 -5.57707e-24)
(33.7539 3.84786 -1.01765e-23)
(30.5523 2.66748 0)
(26.1064 5.28485 0)
(19.4177 5.66464 -2.54683e-23)
(18.8021 7.14884 2.30064e-24)
(9.6445 9.75666 2.26287e-23)
(-12.3843 21.1307 3.43257e-24)
(-7.65372 16.9978 4.57149e-24)
(-1.75114 17.9073 0)
(8.33569 14.9048 -6.84322e-24)
(19.4559 13.1738 -2.89095e-24)
(28.5291 9.16108 4.53e-23)
(31.4833 5.30414 -7.05996e-24)
(28.6367 3.80971 0)
(21.3316 5.47238 0)
(14.677 6.98078 -1.17572e-23)
(9.3123 7.19663 -7.26179e-23)
(3.72619 6.39243 0)
(-14.5558 23.7428 -4.51803e-24)
(-7.79915 19.1871 -1.37044e-23)
(-0.207322 21.7833 -5.15746e-24)
(9.97364 19.1827 4.16009e-24)
(20.559 17.1216 -1.43755e-23)
(27.5637 13.4056 -4.49435e-23)
(28.8253 8.76599 4.62788e-23)
(25.6247 5.72037 -4.50487e-23)
(18.8968 5.9778 0)
(12.3454 7.71269 -4.4904e-23)
(8.00005 8.54596 -1.02064e-22)
(2.05981 11.5293 -5.3691e-24)
(-15.0142 26.926 8.11165e-24)
(-6.41946 24.203 2.75062e-23)
(2.9275 29.8215 -1.89765e-23)
(11.9247 26.5744 1.3063e-23)
(21.3169 23.0786 -3.92009e-23)
(25.437 16.2591 -1.01777e-22)
(25.3422 12.4653 8.24085e-23)
(22.1553 8.00275 -4.22362e-23)
(16.0369 7.10705 -4.12982e-23)
(10.5052 8.29247 -8.03278e-29)
(6.18252 10.0547 -7.72063e-23)
(2.05925 12.3839 -8.64365e-24)
(-11.9989 30.1728 1.33832e-23)
(-1.11309 29.2458 -5.44868e-29)
(6.57987 34.7236 -9.94375e-29)
(11.5235 30.9442 0)
(17.6085 27.994 -1.20142e-23)
(20.7968 18.406 -6.177e-23)
(21.3758 13.9941 -3.39912e-24)
(18.0328 10.1198 7.02374e-24)
(13.3695 8.45203 -2.9475e-23)
(9.72959 9.25975 2.83036e-23)
(7.15161 10.8492 -2.48945e-23)
(4.63182 14.0813 4.6352e-23)
(-7.6033 33.3046 1.49284e-23)
(0.993006 33.8378 -1.13487e-23)
(6.81395 36.5635 1.66055e-23)
(9.49703 32.5291 -8.64052e-24)
(13.6628 30.0751 -5.60906e-23)
(15.9535 22.9409 -4.93698e-23)
(17.5271 16.3014 9.54088e-25)
(15.3042 12.7172 1.20708e-23)
(12.5017 10.7626 9.69733e-24)
(10.5508 11.1127 0)
(8.78794 12.9111 5.49533e-25)
(8.17254 15.3389 3.06481e-23)
(-1.31872 37.2506 4.79353e-24)
(4.31907 37.5482 1.30735e-24)
(6.38753 34.5293 0)
(7.97146 31.3415 -3.33077e-23)
(10.7528 27.3979 -3.52873e-23)
(12.497 23.4188 3.14782e-29)
(13.9953 17.9299 -2.15652e-23)
(13.1402 13.8391 -1.87786e-23)
(11.8247 12.2825 7.66242e-25)
(11.3399 11.9697 1.05058e-23)
(10.7533 12.8455 0)
(9.61995 14.9549 2.48022e-24)
(6.62711 33.0163 -1.05655e-24)
(-0.663275 31.3599 1.32828e-24)
(0.913407 31.3441 0)
(3.30181 28.0975 -5.03209e-23)
(6.16551 25.4841 -3.03962e-23)
(8.35342 22.0799 3.1482e-23)
(10.1189 18.725 -7.8381e-23)
(10.1936 14.4813 -1.68841e-23)
(10.4051 11.8359 2.30103e-23)
(9.72138 10.4954 0)
(7.81206 10.2311 -1.81535e-24)
(6.59213 11.3883 1.96577e-23)
(32.363 31.9014 6.49118e-23)
(29.4851 29.3392 -3.17e-24)
(25.3937 25.2456 -1.07111e-22)
(20.2924 19.5627 -1.28883e-25)
(16.119 15.3899 -1.58859e-23)
(11.695 9.53371 3.80111e-23)
(9.94575 6.12869 5.86947e-23)
(6.37016 4.22689 4.23534e-24)
(5.50256 3.81193 0)
(7.0329 3.64685 -4.77976e-25)
(8.44552 -1.21736 -7.48238e-25)
(11.0643 -3.6261 6.871e-27)
(26.6548 34.951 0)
(23.2516 35.7612 0)
(19.3052 35.2161 1.40938e-23)
(15.1711 31.2136 0)
(12.8572 25.2037 -1.54054e-24)
(10.9558 20.0424 0)
(8.12713 15.0671 5.56462e-24)
(5.60219 8.14786 -7.85535e-24)
(12.8152 2.22961 -1.49379e-23)
(16.7249 0.163471 0)
(17.6288 1.00982 7.60918e-25)
(13.9248 -3.04797 9.61643e-25)
(25.6803 32.1538 0)
(21.214 36.6238 -7.53997e-23)
(17.27 39.105 -1.0048e-22)
(13.8995 37.4009 0)
(13.2521 30.5288 0)
(13.6003 26.2955 1.04855e-23)
(11.5836 21.6013 1.38263e-23)
(18.8132 8.66435 -2.37964e-24)
(21.8631 1.1559 -6.17456e-26)
(21.8496 -0.197246 0)
(20.0956 0.833681 0)
(18.5597 -0.525719 -4.03139e-30)
(17.8094 19.7794 0)
(13.2695 28.9446 0)
(7.90785 36.0583 1.61402e-24)
(6.56234 38.1564 0)
(9.26956 33.0465 0)
(10.8097 28.088 1.34749e-23)
(13.4852 21.9464 1.22611e-23)
(16.533 9.68523 1.28992e-24)
(16.9935 1.78881 0)
(22.6017 -3.8027 0)
(23.3616 -4.18024 5.76279e-25)
(25.625 -4.42922 7.28367e-26)
(4.92962 12.3994 -1.1745e-23)
(-1.76908 15.0787 -1.73942e-24)
(-4.07666 23.0927 -7.90746e-23)
(-3.44005 29.8955 0)
(4.8657 29.2987 0)
(10.0024 25.3124 7.84872e-24)
(9.96222 22.8311 2.20124e-23)
(13.8214 10.7285 2.20009e-23)
(20.1612 -2.17952 4.07705e-24)
(25.7992 -3.81791 0)
(25.8626 -0.0820974 -1.96514e-24)
(28.4855 -0.156849 -1.97335e-24)
(0.229431 8.12339 -5.50191e-23)
(-6.34955 10.7344 2.36265e-23)
(-7.74811 17.255 2.72654e-24)
(-2.79358 18.0731 0)
(9.10998 19.7893 0)
(10.1955 25.4054 6.2574e-23)
(16.2574 24.2632 6.2553e-23)
(23.2714 9.23607 1.19343e-23)
(28.6045 -5.85133 -4.60075e-25)
(31.492 4.53085 0)
(31.5968 7.16126 2.72323e-24)
(29.32 6.77651 -6.89295e-26)
(-3.43312 12.1021 6.5745e-24)
(-4.27044 12.0884 6.4643e-23)
(-2.11196 12.1984 -1.50247e-23)
(4.4642 12.5021 0)
(9.03541 13.0732 1.74002e-23)
(16.9766 16.9689 -4.64477e-23)
(25.4084 22.3122 5.49033e-23)
(34.949 12.2726 3.93295e-23)
(40.066 -0.814882 -4.57322e-24)
(34.5027 5.28224 -8.13134e-24)
(32.5369 9.1177 -8.0525e-24)
(32.8673 10.215 -4.67056e-25)
(0.919057 15.152 4.26899e-24)
(1.80754 16.1388 3.20244e-23)
(3.25645 15.2289 2.48249e-28)
(7.0798 11.765 -1.43976e-24)
(11.9695 7.68433 -3.71476e-23)
(17.9445 8.09725 -3.25802e-23)
(24.1797 11.3452 3.00959e-23)
(30.6046 14.1499 8.41622e-24)
(32.4453 9.02746 -2.05032e-23)
(39.4199 0.965931 -8.62873e-24)
(35.2318 6.21213 3.28806e-25)
(32.8011 12.9589 -9.36183e-25)
(4.88254 16.5634 -5.3653e-23)
(6.16609 17.7009 0)
(8.07075 16.7893 -2.7153e-23)
(12.3603 12.7909 1.74575e-23)
(15.5566 7.16059 2.13635e-23)
(18.5691 4.95112 1.83837e-23)
(18.7131 4.7059 8.86035e-24)
(24.3455 5.51584 1.46894e-23)
(23.0397 6.97188 0)
(35.4863 6.51806 -2.56359e-28)
(38.7496 0.439436 1.99042e-28)
(38.3509 12.7706 4.03876e-32)
(8.38024 17.8267 -4.49942e-23)
(9.15332 19.0533 -2.45313e-23)
(11.3197 18.5805 0)
(15.0617 15.338 8.38032e-23)
(17.7182 9.62383 3.26611e-23)
(18.2374 6.37768 2.24775e-23)
(18.189 4.47838 2.05127e-23)
(18.0463 4.68371 1.13835e-23)
(19.9504 1.89965 8.6165e-24)
(22.6322 5.43801 -3.84129e-24)
(39.032 -5.2272 1.09169e-23)
(41.1863 -0.86614 0)
(9.454 16.858 6.85998e-24)
(10.2254 17.8309 0)
(12.6581 17.3634 3.49388e-23)
(16.0252 14.4491 9.61585e-23)
(17.715 10.433 -3.37791e-23)
(16.9396 6.9421 6.34182e-24)
(16.279 5.37461 -1.36729e-28)
(15.4944 3.56464 4.93907e-25)
(17.9032 2.04297 7.09523e-26)
(16.0429 0.889905 0)
(36.8084 -5.44534 -8.42472e-24)
(39.8117 -7.65992 -9.67782e-24)
(6.16636 13.1437 -9.18639e-24)
(6.89212 14.2299 -1.29073e-23)
(9.33424 14.3228 0)
(11.3473 12.4343 3.55247e-28)
(12.5245 9.84825 -1.95959e-23)
(11.5525 6.85853 -6.19942e-24)
(11.7643 5.32769 7.59783e-24)
(10.9627 3.13451 4.82439e-24)
(13.5905 1.80686 -1.31252e-23)
(13.4509 -4.37975 1.0175e-23)
(27.5309 -5.1007 -3.80983e-24)
(39.5552 -26.3679 5.83913e-24)
(12.6681 0.390537 1.14504e-25)
(11.3992 -0.884556 -5.19274e-25)
(10.6631 -1.45947 -5.54747e-25)
(10.052 -2.44463 0)
(9.9829 -3.10623 4.60658e-25)
(9.96652 -3.1965 8.06408e-24)
(10.2562 -2.65204 1.26705e-23)
(10.4018 -3.2933 1.23646e-23)
(10.3907 -5.54495 -5.58557e-26)
(12.3684 -12.1596 4.1164e-23)
(9.31292 -31.6518 1.35867e-24)
(16.7666 -47.2558 1.40643e-22)
(15.1318 3.24144 8.46391e-25)
(12.4743 1.50727 4.28431e-25)
(13.0622 -0.391291 0)
(11.812 -2.45668 -2.15212e-24)
(12.8806 -3.7743 -5.36815e-25)
(12.9514 -5.78704 2.62132e-24)
(14.6128 -8.5556 0)
(15.4916 -13.3447 -3.59419e-24)
(13.854 -22.4175 0)
(14.6883 -40.0337 0)
(14.6149 -47.5049 0)
(17.9649 -48.2335 0)
(16.8625 4.08877 0)
(13.5035 1.48103 0)
(14.7663 -1.6575 0)
(12.9801 -4.28595 2.92559e-24)
(14.2546 -7.48374 -8.35059e-25)
(14.6672 -11.1528 1.14391e-23)
(17.1278 -14.738 1.15636e-23)
(17.6058 -19.7568 0)
(14.2562 -32.6038 0)
(11.5456 -44.4027 -2.16166e-23)
(10.2318 -47.697 -5.07222e-23)
(10.3408 -47.8706 0)
(18.6771 6.76486 0)
(14.5249 3.01015 -3.07125e-25)
(15.9572 -1.26176 0)
(14.8752 -4.68548 0)
(14.9266 -9.6455 -4.67705e-25)
(13.7208 -14.3445 2.12005e-23)
(15.5724 -18.6792 2.26048e-23)
(15.6594 -23.5185 0)
(12.5952 -35.8569 0)
(8.10721 -43.5375 -7.28585e-24)
(6.90316 -44.5209 0)
(6.76943 -42.6715 0)
(20.3725 7.94534 -2.70626e-24)
(16.5179 3.30822 -2.07002e-24)
(17.3735 -3.75421 0)
(15.866 -6.50677 -5.1854e-24)
(15.1854 -10.1456 -5.40048e-24)
(13.2119 -16.1469 6.05025e-24)
(13.3873 -21.1206 1.0448e-24)
(13.6448 -26.2281 0)
(11.1645 -37.1149 0)
(6.81803 -40.9901 -1.8813e-23)
(4.55456 -40.299 2.81956e-24)
(4.03759 -37.2052 4.77957e-23)
(22.7208 9.62454 1.39771e-24)
(20.0239 3.95099 2.22236e-24)
(21.643 -2.82923 0)
(17.8686 -4.6228 3.95303e-25)
(17.5249 -10.4914 5.00577e-24)
(14.9583 -17.6933 2.58128e-23)
(14.4664 -23.7639 3.5628e-23)
(14.2112 -31.1265 0)
(12.2171 -37.5924 0)
(8.1015 -38.4362 1.94291e-24)
(6.07863 -36.8664 -7.21869e-23)
(4.68997 -33.23 0)
(24.9482 7.41418 -2.44849e-24)
(25.1929 1.43617 1.92996e-24)
(26.766 -3.79148 -3.15916e-24)
(25.4665 -6.43919 1.60877e-23)
(24.3819 -14.0964 -1.32189e-23)
(21.0178 -21.4172 -3.114e-23)
(18.9513 -29.6468 3.90251e-23)
(17.4407 -34.6296 -5.60458e-23)
(14.0869 -36.9555 0)
(10.4704 -36.041 -7.14468e-23)
(7.45614 -33.5507 -7.7878e-23)
(5.81599 -30.3704 4.00329e-23)
(26.561 4.54566 1.64973e-24)
(29.4439 -0.741899 2.63186e-23)
(30.6512 -5.64653 -2.53421e-23)
(32.6682 -8.46008 3.60964e-23)
(31.0216 -15.2863 -6.40704e-24)
(28.4161 -23.5707 -1.17796e-22)
(24.4686 -31.0054 1.84415e-22)
(21.0764 -33.5475 -1.60145e-23)
(16.8219 -34.3427 -7.49906e-23)
(12.7324 -31.7232 1.83094e-28)
(8.71062 -29.4543 -1.10887e-22)
(5.90043 -26.2391 4.48626e-23)
(26.987 0.0340499 -4.31601e-24)
(33.2731 -4.49542 -2.83897e-29)
(35.5412 -9.19736 5.99153e-29)
(37.1707 -11.6768 0)
(36.092 -18.0734 -6.14414e-24)
(33.0256 -25.296 -1.00128e-22)
(28.5263 -31.3155 -5.1822e-23)
(23.8966 -32.1407 -5.31328e-23)
(18.6003 -30.6168 -7.00139e-23)
(14.2508 -27.2776 6.54605e-23)
(9.08394 -23.9341 -6.40207e-23)
(4.55499 -19.4136 1.12147e-22)
(34.1156 -3.62609 -7.1559e-24)
(36.2954 -10.4729 -1.21686e-23)
(37.615 -11.4993 2.42539e-23)
(40.6024 -13.1058 1.1215e-24)
(40.9794 -18.3846 -8.90554e-23)
(37.2086 -24.3913 -1.14814e-22)
(32.1897 -28.7543 -4.30294e-23)
(27.4454 -27.0377 -4.27648e-23)
(21.8611 -25.5117 -2.88163e-23)
(15.5398 -20.1181 0)
(10.8515 -16.1875 -3.13173e-23)
(5.43989 -11.1884 3.12702e-23)
(36.2564 -14.466 2.89314e-24)
(38.7473 -8.43801 1.52639e-24)
(39.9301 -13.4158 0)
(42.3898 -16.8754 -6.39822e-23)
(41.7267 -20.3846 -6.1631e-23)
(38.4675 -23.0782 -1.43814e-28)
(34.5757 -26.7096 -4.33628e-23)
(29.3872 -24.8855 4.18889e-23)
(23.7239 -19.9506 1.90607e-24)
(17.0109 -14.1373 5.35734e-24)
(11.3183 -10.5701 0)
(5.90367 -5.36282 -3.77327e-23)
(27.8592 -16.0034 5.71936e-24)
(37.2047 -14.521 4.23431e-24)
(37.7783 -16.7908 0)
(39.86 -16.5315 -7.93091e-23)
(40.9877 -16.1551 -7.68949e-23)
(38.135 -19.7113 5.77698e-23)
(32.921 -22.532 -5.62292e-23)
(26.1706 -13.4834 2.77648e-23)
(20.7092 -8.11389 2.82396e-23)
(15.2803 -3.70085 0)
(10.2224 -0.0436302 1.34934e-23)
(5.99118 4.27986 1.25883e-23)
(25.4646 -49.2172 -1.97593e-22)
(27.3101 -55.3389 -1.67177e-23)
(29.2651 -56.1493 2.85589e-23)
(28.2281 -56.6242 -2.57875e-23)
(26.6029 -54.7919 -8.41254e-23)
(24.0121 -52.507 -3.15104e-22)
(22.2802 -48.6095 -2.14527e-22)
(19.3034 -42.859 -2.49905e-24)
(17.6003 -36.2351 0)
(15.1487 -28.8926 -2.01552e-24)
(11.3918 -18.638 -2.72369e-24)
(2.00766 -14.7766 9.87325e-25)
(25.3895 -45.1789 0)
(29.4501 -44.5068 0)
(32.9626 -42.1943 -1.94263e-23)
(33.1563 -39.9078 0)
(31.722 -39.1356 1.59338e-23)
(29.3543 -37.203 0)
(28.4834 -35.4539 -5.46049e-24)
(27.4693 -32.5587 4.21336e-23)
(26.725 -28.798 2.29647e-23)
(25.7608 -26.0308 0)
(24.3604 -19.403 -3.67195e-24)
(9.96279 -17.5647 2.79501e-24)
(14.5833 -45.1218 0)
(18.3129 -41.7797 2.22811e-23)
(22.7702 -36.1513 -3.06874e-23)
(25.0293 -32.5233 0)
(25.7182 -31.0904 0)
(25.2483 -29.255 -5.59814e-23)
(25.6174 -27.8107 -1.78229e-23)
(26.8133 -25.6971 -5.07133e-24)
(27.7193 -23.3929 -1.74845e-23)
(28.63 -22.7047 0)
(29.5751 -19.0668 0)
(14.199 -19.607 2.37026e-24)
(11.0544 -37.7097 0)
(17.0081 -31.3894 0)
(22.9072 -25.714 2.25531e-23)
(25.2304 -24.6816 0)
(26.1153 -24.8822 0)
(26.6781 -24.7204 -4.63245e-23)
(27.4139 -24.172 -3.30378e-23)
(28.8924 -22.9678 -1.76974e-24)
(28.9374 -21.4941 0)
(30.2123 -21.6495 0)
(31.4979 -18.3191 1.5609e-24)
(18.8018 -21.1081 -1.43896e-24)
(6.27706 -32.0203 -9.6785e-23)
(11.0108 -26.4552 3.19132e-24)
(15.9117 -22.7367 -2.42576e-23)
(19.5474 -22.9474 0)
(21.5151 -22.8375 0)
(23.3472 -22.5479 1.51902e-23)
(25.498 -22.1305 -2.69777e-23)
(28.4639 -21.8398 -1.16496e-23)
(29.2679 -21.0778 -4.63322e-24)
(31.4471 -21.6505 0)
(32.9242 -18.6976 2.5191e-24)
(19.7184 -20.8162 2.45935e-24)
(6.59404 -28.9431 -5.56194e-23)
(11.0781 -23.9648 3.32713e-23)
(14.8169 -21.2687 -3.15484e-23)
(17.6423 -20.6441 0)
(20.3426 -19.7854 0)
(22.2642 -19.3224 -1.51177e-23)
(24.0373 -19.5163 -5.09583e-23)
(27.3678 -20.3205 1.8096e-23)
(28.6338 -21.132 -1.3898e-23)
(31.9501 -22.4164 0)
(34.2378 -19.7594 -3.05e-24)
(20.9282 -22.7195 -3.12177e-24)
(6.16286 -27.0001 -4.63222e-23)
(9.64177 -22.4547 6.01773e-23)
(13.0526 -19.8734 -8.89422e-25)
(14.451 -16.8646 0)
(16.6725 -15.4947 2.84674e-23)
(18.6264 -14.2159 -3.46922e-23)
(19.7655 -15.1536 4.40062e-23)
(23.4809 -16.5435 2.6574e-23)
(25.5568 -18.9732 -2.66931e-23)
(31.4877 -21.9707 -4.97577e-25)
(34.4319 -20.1905 -5.244e-25)
(22.2022 -24.6499 3.63237e-24)
(5.01313 -22.8612 -5.5575e-23)
(6.66377 -17.1708 5.72507e-24)
(10.3128 -12.799 -2.47177e-29)
(12.3941 -9.16969 2.97835e-23)
(13.7641 -7.69623 -1.42211e-24)
(15.4177 -7.46021 -1.28263e-22)
(15.7223 -9.50117 6.09975e-23)
(18.1408 -11.293 5.23312e-23)
(20.1268 -15.6437 -1.27952e-23)
(27.2381 -19.0344 3.92113e-23)
(33.0295 -20.3038 -2.68645e-23)
(23.153 -27.0392 -3.61515e-24)
(2.6261 -14.4391 -1.0269e-22)
(3.33452 -8.28304 0)
(5.76121 -4.4079 -3.26701e-23)
(7.97576 -1.57327 2.76191e-23)
(9.37689 -1.44983 3.63458e-23)
(10.6255 -1.99191 4.62393e-23)
(11.4239 -5.33052 5.9337e-23)
(13.562 -7.52589 3.08872e-23)
(15.1763 -12.5677 0)
(22.6392 -13.5195 -6.46356e-28)
(28.7233 -17.3075 1.01801e-28)
(22.9852 -31.3638 2.29653e-29)
(1.70247 -7.06451 -1.41596e-23)
(0.878881 -1.89726 4.33952e-23)
(2.50405 2.41682 0)
(4.48345 4.45036 6.05641e-23)
(5.89206 3.79133 3.4117e-23)
(6.58741 2.27618 4.37244e-23)
(6.55092 -1.77405 7.88972e-23)
(7.80278 -3.14748 6.36736e-23)
(10.6065 -7.13233 3.95257e-23)
(17.8687 -7.17709 -2.0765e-23)
(21.3128 -16.6158 3.19541e-23)
(18.11 -33.7157 4.54842e-24)
(1.66682 -0.424521 3.15893e-23)
(-0.148513 4.91017 0)
(0.170447 7.66685 -1.51426e-23)
(1.22695 7.98094 2.50644e-23)
(1.97914 6.84631 -2.56403e-23)
(2.45806 4.77883 -3.44674e-24)
(3.15515 2.73444 -3.0637e-28)
(5.27078 2.1869 1.15146e-23)
(7.32229 -1.15133 3.54065e-23)
(12.2083 -4.06892 0)
(13.7933 -16.5069 -7.84372e-24)
(10.6455 -29.0345 -5.77039e-25)
(1.89541 6.98629 -3.05071e-23)
(-0.330573 9.19501 1.21254e-23)
(-0.154127 9.24141 0)
(0.390381 8.81912 4.61316e-29)
(0.84982 7.67334 -1.57359e-23)
(1.23413 6.145 -6.04672e-23)
(1.29621 4.80367 2.25145e-23)
(1.63938 2.6296 1.88658e-23)
(3.19741 -1.36135 2.07698e-23)
(4.84086 -6.00844 -1.25675e-23)
(8.01247 -18.9186 -6.33491e-24)
(-6.91698 -32.5251 -4.86191e-24)
(1.41424 -12.3208 0)
(-0.143751 -10.3152 -1.77356e-25)
(-0.932989 -9.27568 -3.42774e-25)
(-1.7982 -8.19804 0)
(-2.407 -8.069 2.6662e-25)
(-3.96658 -7.59871 1.08741e-23)
(-5.77468 -9.00563 2.27781e-23)
(-7.50175 -9.7749 4.11702e-24)
(-9.01404 -10.7899 3.26797e-24)
(-9.51519 -11.4308 -2.08875e-24)
(-9.79964 -11.367 4.5665e-24)
(-10.0311 -10.6497 1.16505e-23)
(4.86323 -15.6033 1.10986e-24)
(2.81157 -11.8097 1.34969e-24)
(0.812856 -11.8633 0)
(-1.18728 -9.86538 1.11521e-24)
(-3.04862 -9.78488 -5.59877e-24)
(-6.59977 -8.71985 -1.524e-24)
(-9.6637 -10.0063 0)
(-11.0331 -12.1417 -2.36852e-24)
(-11.9995 -14.0492 0)
(-12.0182 -15.1447 0)
(-11.9628 -15.5154 0)
(-11.6382 -15.3914 0)
(5.54677 -17.5739 -1.0876e-29)
(4.56559 -13.7769 0)
(1.01401 -14.1404 0)
(-0.878052 -11.7114 1.54791e-25)
(-3.57985 -10.7758 2.97395e-24)
(-8.82107 -8.66015 3.43704e-24)
(-13.533 -8.70297 3.08129e-23)
(-15.6493 -9.89515 0)
(-15.3134 -12.5371 0)
(-13.8447 -14.7238 -3.74303e-24)
(-13.1603 -16.1518 7.3454e-25)
(-12.8983 -16.3784 0)
(7.13902 -18.952 2.85857e-25)
(5.9012 -16.5551 5.52211e-25)
(1.88855 -17.2375 0)
(0.629838 -14.2867 0)
(-3.32398 -13.6235 -4.24396e-24)
(-10.362 -10.6221 1.7115e-23)
(-15.9925 -10.3963 4.33192e-23)
(-17.8462 -11.2215 0)
(-17.2094 -13.5545 0)
(-15.9504 -15.6991 -1.27971e-23)
(-15.5128 -18.0202 0)
(-16.381 -19.9347 0)
(6.70539 -20.4923 -1.96739e-24)
(5.23234 -19.1306 -8.80001e-25)
(2.45698 -19.7551 0)
(1.10565 -17.0263 1.18548e-23)
(-4.74383 -16.7394 -4.82537e-24)
(-13.0712 -14.4072 1.31523e-23)
(-20.5848 -13.8846 -2.85363e-24)
(-22.369 -13.7025 0)
(-21.2499 -15.6137 0)
(-20.0282 -17.2986 2.58869e-23)
(-21.3393 -19.1607 1.78621e-24)
(-29.3897 -20.8476 -7.55212e-24)
(6.51835 -21.962 2.1118e-24)
(5.15774 -20.5736 3.18948e-24)
(3.18033 -21.4486 0)
(0.218955 -21.4316 6.43029e-24)
(-7.87831 -21.2409 -4.64215e-24)
(-18.4221 -20.5765 4.81887e-23)
(-24.1354 -19.634 4.49409e-23)
(-24.4041 -18.6557 0)
(-23.0812 -18.8293 0)
(-23.1909 -19.1764 -5.86628e-24)
(-30.2309 -19.3251 -5.9947e-23)
(-39.0115 -20.0208 0)
(6.86592 -24.0093 -7.10302e-24)
(4.9147 -23.3391 -1.76599e-24)
(0.300581 -24.6206 -6.51072e-24)
(-3.50576 -25.793 1.5812e-23)
(-13.4372 -26.8928 -1.73302e-23)
(-22.739 -25.9922 -4.29891e-23)
(-25.7625 -24.3467 3.44425e-23)
(-25.4595 -22.6574 -2.91796e-23)
(-25.0698 -22.0748 0)
(-28.8727 -20.7511 3.2755e-23)
(-37.6413 -19.3367 -8.66896e-23)
(-40.5695 -18.7415 -2.50172e-23)
(4.21214 -25.57 -6.25521e-24)
(2.39966 -28.3048 2.81637e-23)
(-2.23744 -28.9451 -2.20612e-23)
(-8.01818 -30.8321 3.50935e-23)
(-18.168 -31.9155 -7.32287e-24)
(-24.3531 -31.1497 -8.35204e-23)
(-26.2899 -29.5512 1.1479e-22)
(-26.5577 -28.2063 -7.34392e-24)
(-27.9415 -26.3581 -4.08988e-23)
(-33.6268 -23.5311 1.26222e-27)
(-38.4883 -20.0179 -1.41937e-22)
(-39.5761 -17.987 -2.81878e-23)
(2.17252 -27.9048 3.31526e-24)
(-0.0594605 -32.8702 -8.67912e-29)
(-4.92302 -33.5848 2.38758e-28)
(-12.363 -36.2816 0)
(-21.3709 -35.8631 -2.76025e-24)
(-26.3636 -35.1009 -6.99876e-23)
(-27.7593 -33.2237 -3.24157e-23)
(-28.3381 -31.8712 -3.27197e-23)
(-29.8418 -29.9719 -4.87602e-23)
(-34.8624 -26.3228 4.44626e-23)
(-37.9941 -21.392 -4.96561e-23)
(-36.648 -18.1879 1.46262e-22)
(-4.94051 -33.8908 1.07381e-23)
(-4.64811 -37.4877 -1.1388e-23)
(-9.33166 -38.7509 4.24236e-23)
(-16.0182 -40.0062 8.22729e-24)
(-23.7915 -39.4013 -6.01644e-23)
(-27.3107 -38.9892 -4.84916e-23)
(-28.3454 -38.1479 -1.94508e-23)
(-28.8867 -36.955 -2.15354e-23)
(-31.167 -34.1349 -2.77938e-23)
(-36.0582 -30.3338 0)
(-35.681 -24.6322 6.23853e-23)
(-32.093 -20.6364 1.96357e-22)
(-11.5211 -29.0973 5.04486e-24)
(-5.44184 -35.8688 2.33594e-24)
(-9.61306 -38.4635 0)
(-17.0063 -40.4743 -5.71459e-23)
(-24.2917 -39.1481 -4.36292e-23)
(-27.4871 -38.4533 2.30528e-29)
(-27.6891 -37.1385 -1.71389e-23)
(-30.6904 -38.4363 2.02063e-23)
(-32.8076 -37.4808 3.28018e-24)
(-36.0742 -34.3603 -2.39776e-23)
(-33.0906 -28.7088 0)
(-26.4732 -23.1545 -8.74517e-23)
(-10.4349 -27.6532 9.29002e-24)
(-11.0982 -31.6781 1.1063e-24)
(-13.7109 -34.2901 0)
(-19.0049 -36.7478 -7.67737e-23)
(-24.4018 -35.7969 -2.33243e-23)
(-27.0902 -34.7854 2.07246e-23)
(-28.4493 -33.2578 -2.69459e-23)
(-29.3478 -33.1996 2.96525e-24)
(-27.7775 -31.1736 1.49418e-23)
(-31.3252 -33.6769 0)
(-23.9875 -30.481 -1.0761e-22)
(-18.873 -26.23 -5.56901e-23)
(-9.83985 -9.60185 -1.67057e-23)
(-9.17996 -8.68351 -2.33801e-24)
(-8.62559 -7.50686 1.6483e-23)
(-8.41848 -6.63117 -1.66891e-24)
(-7.72244 -5.74997 1.62875e-23)
(-7.79222 -4.56318 1.95427e-23)
(-8.7774 -1.8986 5.39436e-26)
(-11.3709 0.0627799 -6.65245e-25)
(-14.011 -0.213542 0)
(-15.2019 -1.09117 1.16213e-24)
(-15.1627 -1.70234 1.08972e-24)
(-13.9497 -1.07681 -1.07705e-25)
(-11.3354 -14.8434 0)
(-11.5658 -13.3116 0)
(-11.6075 -11.0214 -6.06873e-24)
(-11.8242 -9.49512 0)
(-11.482 -7.87024 9.77647e-25)
(-11.9453 -5.49446 0)
(-12.6663 -2.72429 -7.68388e-25)
(-13.9728 1.08186 3.316e-24)
(-14.142 0.901253 4.35802e-24)
(-14.179 -0.411141 0)
(-14.1463 -3.49232 -5.73298e-25)
(-15.7618 -4.0114 -6.53464e-25)
(-12.9897 -16.3575 0)
(-13.8753 -17.8302 2.67076e-23)
(-16.2133 -17.1913 2.44437e-23)
(-17.2991 -15.9096 0)
(-18.607 -15.0435 0)
(-18.8693 -11.2028 1.71694e-24)
(-19.4564 -6.51563 -1.81735e-23)
(-18.0166 -1.68241 7.51823e-24)
(-15.123 -0.0403269 8.421e-24)
(-13.6811 0.185241 0)
(-13.613 0.918878 0)
(-16.2846 -1.47185 0)
(-21.9055 -21.1644 0)
(-28.9176 -21.3713 0)
(-32.5005 -22.7756 2.60076e-23)
(-35.4558 -22.5826 0)
(-36.6708 -22.5912 0)
(-36.6838 -20.7002 -1.06056e-23)
(-34.0586 -16.8034 -4.48228e-23)
(-28.7334 -12.5133 -1.0699e-23)
(-21.2417 -7.69205 0)
(-15.7135 -2.35305 0)
(-14.8865 1.08265 2.45723e-24)
(-16.0644 0.91092 0)
(-38.1581 -22.0489 -5.25936e-23)
(-40.7739 -24.6917 3.15399e-24)
(-42.679 -26.0685 2.29444e-23)
(-43.9907 -27.1766 0)
(-44.0119 -28.2363 0)
(-44.0293 -28.5915 1.3504e-23)
(-40.8928 -28.4725 -2.13099e-23)
(-35.7385 -27.8421 -6.84062e-24)
(-29.7833 -24.2268 -1.85798e-23)
(-23.562 -12.2834 0)
(-18.1489 -0.0138975 1.14918e-24)
(-18.4802 4.47498 -2.12664e-24)
(-41.3306 -20.6523 -5.0019e-23)
(-42.0512 -22.8753 6.40214e-23)
(-42.9525 -24.1456 2.53558e-23)
(-44.2308 -25.4262 0)
(-45.4621 -26.6801 0)
(-45.0856 -29.0444 5.091e-24)
(-41.4237 -31.9904 1.36636e-23)
(-38.6746 -32.9872 -2.38549e-24)
(-34.5128 -31.3941 -6.74679e-24)
(-31.6302 -24.3173 0)
(-25.0117 -7.37344 -7.56742e-25)
(-22.1635 3.71284 -9.61584e-26)
(-40.9667 -18.6784 4.17758e-24)
(-41.27 -19.6439 9.21563e-23)
(-41.0006 -20.5435 4.2674e-23)
(-42.1578 -21.1315 0)
(-42.8353 -24.2232 -8.72782e-24)
(-42.7818 -30.8376 3.99143e-23)
(-38.964 -34.86 -2.17937e-23)
(-37.1796 -36.4838 4.04794e-24)
(-33.4417 -36.0657 -1.06902e-23)
(-32.3753 -29.7006 5.73879e-25)
(-28.7043 -17.1561 -5.85523e-25)
(-22.4705 -2.92614 1.29314e-26)
(-38.1314 -16.2499 9.96874e-24)
(-36.2445 -16.3278 6.99576e-23)
(-34.5027 -15.944 -6.68967e-28)
(-34.6504 -16.0616 5.53749e-23)
(-38.2378 -18.2309 5.97121e-23)
(-37.179 -26.877 1.01419e-22)
(-35.9012 -33.6799 -1.2712e-23)
(-33.7299 -36.7748 5.08678e-23)
(-32.436 -37.9378 8.46884e-25)
(-31.5556 -34.1485 9.9764e-24)
(-29.2005 -24.0389 -9.55639e-24)
(-24.2035 -2.61829 2.56363e-25)
(-32.5331 -15.6821 -1.55494e-22)
(-29.6232 -13.192 0)
(-25.537 -11.3956 -7.77342e-23)
(-24.8528 -5.36706 5.29665e-23)
(-30.3113 -10.6495 -7.08835e-23)
(-25.258 -17.5159 -4.00332e-24)
(-28.2003 -28.8986 5.99884e-23)
(-27.1341 -35.1359 4.42858e-23)
(-27.523 -37.4247 0)
(-31.6312 -35.8489 -2.5194e-28)
(-29.9233 -27.5701 3.4134e-29)
(-29.9245 -5.33465 1.24778e-32)
(-26.3574 -16.491 -1.61557e-22)
(-22.7253 -14.5271 -9.44182e-24)
(-13.9397 -10.7412 0)
(-16.3717 -1.90618 4.33506e-23)
(-15.1929 -0.428027 -4.84571e-23)
(-13.6221 -7.7012 -3.33017e-25)
(-13.9638 -18.3147 1.26285e-22)
(-14.457 -27.4136 1.2753e-22)
(-18.1639 -30.3542 7.48433e-23)
(-25.7076 -31.2017 -8.33653e-24)
(-28.5658 -28.3031 2.76878e-23)
(-33.4457 -8.57566 3.25181e-24)
(-21.6408 -18.5142 1.02397e-22)
(-16.1419 -17.0226 0)
(-10.3716 -13.9455 -5.84049e-24)
(-14.482 -3.36576 1.53736e-22)
(-8.46153 2.06278 2.15896e-23)
(-8.11995 -2.50235 7.08228e-23)
(-0.470775 -11.5669 -4.03074e-28)
(0.261108 -19.3229 5.79511e-23)
(-3.38369 -22.0591 5.08916e-23)
(-10.332 -23.4616 0)
(-16.3517 -23.0789 -9.87773e-24)
(-31.3677 -11.6421 2.31751e-24)
(-14.3931 -18.4839 1.07601e-22)
(-9.30991 -16.3499 -1.17226e-22)
(-9.43748 -16.4094 0)
(-13.6295 -10.5783 6.30783e-29)
(-11.2911 -3.80998 6.8219e-24)
(-2.48686 -4.30029 1.19217e-22)
(7.49215 -11.5124 -2.72129e-23)
(6.98039 -15.0129 6.64967e-23)
(2.80243 -16.6437 4.58616e-23)
(-4.28996 -15.998 -1.48536e-23)
(-14.1064 -11.8314 -8.77814e-24)
(-30.508 3.69802 -1.37264e-24)
(-13.8636 2.95895 -3.4624e-25)
(-15.0558 3.5401 -1.53839e-24)
(-15.3945 3.6837 -1.52833e-24)
(-15.4027 3.70598 0)
(-14.6161 4.86422 1.80291e-24)
(-14.649 5.61472 9.72525e-24)
(-14.9628 5.3874 5.8275e-24)
(-14.8786 5.33261 -4.682e-24)
(-15.5804 7.76589 4.94928e-24)
(-13.4907 16.9816 1.6864e-23)
(-14.952 26.7694 9.60022e-24)
(-19.4213 30.2709 4.12772e-23)
(-14.6307 2.59956 -7.25731e-26)
(-15.2224 2.75376 -1.26047e-24)
(-15.4745 2.55106 0)
(-15.9328 3.01691 -7.24893e-24)
(-16.2 4.5322 -1.44621e-24)
(-15.995 7.00752 5.34885e-24)
(-17.3968 9.45046 0)
(-17.9434 15.1809 -8.41304e-24)
(-18.5468 24.264 0)
(-19.0345 30.5741 0)
(-19.365 33.1224 0)
(-21.4775 35.5357 0)
(-15.351 2.75313 -2.24326e-30)
(-14.5156 4.21999 0)
(-14.2745 4.38658 0)
(-14.6081 5.04732 6.1599e-24)
(-15.1656 6.74362 -5.30092e-25)
(-14.92 10.2942 1.26886e-23)
(-16.0983 14.882 1.99337e-23)
(-16.9292 20.8202 0)
(-16.7689 26.1493 0)
(-16.1368 31.0759 -1.59048e-23)
(-15.3042 34.8702 -2.08899e-23)
(-16.3786 38.6275 0)
(-17.2857 -1.23828 -1.82771e-25)
(-14.6727 1.57579 -2.44543e-25)
(-13.6807 2.9939 0)
(-13.3009 4.72523 0)
(-13.5362 6.8349 -2.67116e-24)
(-12.8841 11.7015 1.45142e-23)
(-12.5411 17.2229 2.01528e-23)
(-12.8616 22.2852 0)
(-11.8416 27.4208 0)
(-12.3069 32.6195 -4.88926e-25)
(-11.6047 36.2747 0)
(-12.2442 39.3139 0)
(-19.4721 -2.67519 -8.4311e-25)
(-15.4683 -0.155855 -2.80714e-24)
(-13.436 3.01965 0)
(-12.6349 5.50233 -1.33059e-23)
(-11.5945 7.8602 -1.11711e-23)
(-11.1423 12.8257 -3.90363e-24)
(-10.5797 18.514 1.04023e-23)
(-10.1074 23.5922 0)
(-9.34557 29.3134 0)
(-8.69331 34.0499 -2.89989e-24)
(-8.07174 36.2464 7.21799e-25)
(-7.58042 37.9445 4.39168e-23)
(-21.0141 -6.1716 1.89646e-24)
(-16.4109 -4.68471 2.78488e-24)
(-14.5214 0.842861 0)
(-12.9443 3.84864 -1.22546e-23)
(-13.7436 7.86239 1.27346e-23)
(-11.7789 15.0557 8.85579e-24)
(-10.7574 21.0822 3.50892e-23)
(-9.5417 26.0587 0)
(-8.87971 31.7132 0)
(-8.26175 34.0596 9.11788e-24)
(-6.15925 34.3281 -1.59091e-23)
(-4.5392 35.2341 0)
(-22.3039 -8.45271 -2.74001e-24)
(-18.4851 -6.0788 -1.58567e-23)
(-17.579 1.09298 -3.07428e-24)
(-15.9054 7.13574 -7.15174e-24)
(-17.1205 11.9871 4.61501e-24)
(-15.8406 16.9417 3.08995e-24)
(-14.1498 22.886 8.79642e-25)
(-12.1412 29.5279 -1.21302e-23)
(-10.3078 33.9109 0)
(-8.86646 33.714 1.55925e-23)
(-7.1294 32.3498 -8.60779e-23)
(-3.9763 31.8336 2.63287e-23)
(-24.229 -11.2966 3.63478e-24)
(-23.0965 -7.64307 9.14697e-24)
(-23.1612 1.76983 -3.92758e-24)
(-23.441 8.40271 2.03044e-24)
(-22.9251 13.8541 -1.82222e-23)
(-21.808 20.3529 -3.53086e-23)
(-18.9016 27.1528 9.82063e-23)
(-16.5264 31.8717 1.15601e-23)
(-13.2813 33.4657 -1.9111e-23)
(-11.1698 31.7706 6.43943e-28)
(-8.80449 30.1235 -5.08926e-23)
(-5.09283 28.9942 1.6772e-23)
(-27.8646 -9.70255 5.45526e-24)
(-31.1082 -3.9104 -1.33551e-28)
(-31.0208 6.32239 4.9649e-29)
(-31.4779 13.1985 0)
(-30.4248 17.9396 -7.98438e-24)
(-27.3789 22.2175 -6.23805e-23)
(-23.1202 26.9019 -2.6415e-23)
(-18.8121 30.8753 -2.04246e-23)
(-15.3209 31.7489 -2.97416e-23)
(-12.108 29.4568 1.58261e-23)
(-10.9375 26.6014 -3.7776e-24)
(-7.81104 24.444 2.5233e-24)
(-31.8808 -4.52705 5.93745e-24)
(-36.5296 -1.12054 -9.19467e-24)
(-37.7516 7.43037 3.65386e-23)
(-35.7985 13.316 -4.06596e-24)
(-34.3049 16.5774 -6.32799e-23)
(-31.239 20.7245 -7.03986e-23)
(-26.1508 26.2693 -2.25237e-23)
(-20.7991 29.6377 -1.59985e-23)
(-16.0359 28.754 -7.14377e-24)
(-12.0311 26.2458 0)
(-9.38124 24.7788 -1.05588e-23)
(-8.02972 23.691 1.25719e-23)
(-31.8093 2.04366 -1.17532e-24)
(-36.8647 3.31474 -3.53996e-25)
(-37.0462 8.59375 0)
(-35.9253 12.9117 -4.65642e-23)
(-35.5584 17.0188 -3.95774e-23)
(-33.4017 20.3187 -1.20813e-28)
(-28.7872 24.1547 -3.52599e-23)
(-22.6231 25.6198 9.05099e-24)
(-17.114 23.6829 1.51611e-24)
(-13.1727 22.447 2.05596e-24)
(-10.1254 21.5663 0)
(-7.8739 20.9831 -4.06902e-23)
(-31.6517 3.87143 2.58077e-24)
(-36.4714 3.57591 4.97086e-25)
(-36.3465 7.17296 0)
(-33.9691 13.2276 -6.68348e-23)
(-32.3987 16.541 -2.46876e-23)
(-30.3499 17.6306 1.91539e-23)
(-27.4317 20.1964 -6.03128e-23)
(-22.6383 21.1355 3.96702e-24)
(-18.0698 21.0516 2.82358e-23)
(-13.7557 20.877 0)
(-10.5939 20.5554 2.98488e-23)
(-7.98085 19.7365 -6.75172e-23)