/*--------------------------------*- C++ -*----------------------------------*\
| =========                 |                                                 |
| \\      /  F ield         | OpenFOAM: The Open Source CFD Toolbox           |
|  \\    /   O peration     | Version:  2212                                  |
|   \\  /    A nd           | Website:  www.openfoam.com                      |
|    \\/     M anipulation  |                                                 |
\*---------------------------------------------------------------------------*/
FoamFile
{
    version     2.0;
    format      ascii;
    arch        "LSB;label=32;scalar=64";
    class       volVectorField;
    location    "1.5";
    object      U.oil;
}
// * * * * * * * * * * * * * * * * * * * * * * * * * * * * * * * * * * * * * //

dimensions      [0 1 -1 0 0 0 0];

internalField   nonuniform List<vector> 
3312
(
(-0.558892 12.9251 0)
(0.0933822 10.9894 -3.0593e-26)
(0.0647985 9.69602 -4.16163e-26)
(1.64974 8.65215 0)
(2.23871 9.65742 2.44205e-25)
(7.26921 11.0273 9.09083e-25)
(25.4259 13.1044 -6.24155e-24)
(34.4233 20.5109 -7.43154e-24)
(33.8368 24.1008 7.0578e-25)
(35.7965 25.0476 -9.32166e-24)
(35.4034 24.8597 1.2548e-24)
(35.3822 22.4771 -3.58967e-25)
(-4.01792 15.5338 9.39329e-26)
(-2.87851 12.5376 9.61204e-26)
(-0.270277 12.2042 0)
(5.22127 10.3427 -1.20388e-24)
(10.1237 11.3027 -1.20756e-24)
(19.281 15.1568 -9.71024e-26)
(30.8029 15.936 0)
(33.6218 20.904 7.61764e-25)
(31.8612 24.5871 0)
(33.0938 24.0586 0)
(32.5648 22.5784 0)
(32.4047 21.5217 0)
(-5.60462 17.1462 0)
(-3.99596 14.2252 0)
(-0.627074 13.3771 0)
(5.6021 10.8239 1.72013e-24)
(14.5761 9.38996 8.85038e-25)
(26.6307 8.06098 -2.13842e-26)
(31.9834 6.57255 -1.0829e-25)
(31.6815 6.1916 0)
(26.3779 7.66221 0)
(32.4207 9.16751 -1.118e-26)
(34.6383 17.3556 -2.2767e-24)
(33.1776 19.1617 0)
(-7.75429 19.2333 0)
(-5.70837 15.522 -1.84241e-25)
(2.43087 15.8799 0)
(16.7461 12.1918 0)
(20.0059 11.9649 -1.05073e-26)
(21.0872 11.7082 -5.85086e-26)
(22.7466 7.67911 -8.07405e-26)
(19.0773 6.93304 0)
(9.11284 9.59134 0)
(13.3126 8.43506 1.91238e-26)
(20.5423 8.25861 0)
(30.0309 7.0144 0)
(-9.07469 20.1993 -3.22797e-25)
(-5.47957 17.1658 -5.52367e-25)
(9.41884 16.1433 0)
(14.0323 15.7591 -2.47956e-26)
(10.8592 21.169 -2.41054e-26)
(6.86849 22.3319 -1.8535e-26)
(4.97759 19.6294 -3.59134e-26)
(1.57864 19.4601 0)
(-1.82915 20.1245 0)
(-3.14398 18.7807 -1.21057e-25)
(-2.20971 15.9791 1.19265e-26)
(6.57213 11.3357 1.5003e-25)
(-11.272 21.8422 5.09027e-25)
(-2.75738 18.4716 1.83391e-25)
(8.59437 17.8835 0)
(10.0235 20.7016 -2.02414e-26)
(7.90322 27.1499 -1.23087e-26)
(4.79079 27.7044 1.62747e-25)
(2.04509 25.0598 -2.23218e-26)
(-0.279591 23.6668 0)
(-1.91395 22.5419 0)
(-2.55436 21.8322 -3.71448e-26)
(-3.92071 20.1198 -3.02805e-25)
(-4.72762 18.845 0)
(-10.4605 23.4965 -3.95948e-25)
(0.702546 18.9392 -1.45804e-25)
(7.0784 17.8667 -1.47141e-26)
(8.18883 24.0844 1.74092e-26)
(7.87936 29.0502 -5.63255e-26)
(6.40711 28.2566 -1.44048e-25)
(4.49581 25.9291 1.5075e-25)
(2.95476 23.8069 -1.45771e-25)
(2.46551 22.2435 0)
(2.50667 21.1529 -1.30075e-25)
(1.93408 20.5437 -2.98818e-25)
(0.639224 20.5865 -1.64965e-26)
(-4.65604 22.8015 1.82049e-25)
(3.15423 19.0838 8.70166e-26)
(5.9768 21.3411 -6.14318e-26)
(6.87094 27.2561 5.5848e-26)
(7.5118 29.3609 -1.40702e-25)
(7.49691 26.9689 -3.03168e-25)
(6.49518 24.5326 2.49616e-25)
(5.64041 22.3546 -1.27935e-25)
(5.14296 20.0217 -1.19182e-25)
(4.78039 18.8329 -2.23274e-31)
(4.28111 17.5897 -2.06704e-25)
(3.48159 17.1644 -2.27996e-26)
(-0.971752 20.8865 8.34489e-26)
(3.85762 19.9541 -8.64137e-32)
(6.53453 24.143 -3.19773e-31)
(7.1458 27.1838 0)
(8.05204 27.4174 -4.23307e-26)
(8.20272 25.1679 -1.76586e-25)
(7.68511 22.9601 -9.76703e-27)
(6.8435 20.8161 2.00038e-26)
(6.5575 18.5454 -8.19157e-26)
(5.95275 17.5566 7.68418e-26)
(5.30811 16.083 -6.57271e-26)
(4.28319 15.0741 1.1776e-25)
(0.862334 20.432 4.83687e-26)
(2.11919 21.3413 -3.25387e-26)
(6.81556 25.9866 6.51058e-26)
(8.03842 26.7485 -3.09341e-26)
(8.91311 26.1556 -1.86987e-25)
(9.05842 23.8851 -1.3546e-25)
(9.09939 21.6108 2.47568e-27)
(8.58531 19.1662 3.28219e-26)
(7.97971 17.185 2.60377e-26)
(7.89578 15.5581 0)
(6.97202 14.5849 1.46283e-27)
(6.0159 13.8848 8.0204e-26)
(2.78716 23.7043 1.22053e-26)
(5.19633 25.4832 4.88849e-27)
(7.91081 25.9652 0)
(9.17949 24.8226 -1.31408e-25)
(9.94585 23.6182 -1.18332e-25)
(10.2139 21.5652 9.11052e-32)
(9.88923 19.3161 -5.6051e-26)
(9.66864 16.7339 -4.90181e-26)
(9.24758 15.4048 2.00204e-27)
(8.7939 13.8958 2.77952e-26)
(8.29344 12.6725 0)
(7.72183 12.507 6.4676e-27)
(7.59111 25.1572 -2.24199e-27)
(6.80639 25.9399 5.17374e-27)
(7.08498 26.0612 0)
(7.98858 24.3411 -2.98031e-25)
(9.63553 22.6193 -1.25318e-25)
(10.4733 20.5233 8.92757e-26)
(10.677 18.4352 -1.98302e-25)
(10.5168 15.6537 -4.26435e-26)
(10.7787 13.5532 6.01204e-26)
(10.6174 11.6042 0)
(9.46629 11.1537 -4.6741e-27)
(8.54724 10.7612 5.14369e-26)
(33.9447 19.3427 5.93288e-24)
(31.4649 15.0611 -2.75141e-25)
(28.3921 9.91828 -8.80769e-24)
(24.4883 3.27539 -9.4278e-27)
(22.0173 -2.07699 -8.6218e-25)
(18.6696 -8.03736 1.12737e-24)
(18.2795 -9.76946 7.26324e-25)
(11.2242 -16.84 2.16367e-26)
(6.64042 -13.2675 0)
(10.3067 -6.1422 -5.82001e-26)
(12.7857 -4.75155 -1.22219e-25)
(12.2989 -6.26741 3.67768e-28)
(30.9506 20.0075 0)
(28.4885 17.6513 0)
(26.1291 13.4208 1.0597e-24)
(23.6527 4.04131 0)
(21.5625 -5.91308 -2.93788e-26)
(18.9859 -13.0166 0)
(16.2831 -16.5025 1.2939e-26)
(8.61457 -14.8182 -5.43106e-26)
(7.38965 -10.5123 -5.59788e-25)
(12.8125 -5.22073 0)
(15.2266 -3.66447 2.48812e-25)
(14.143 -6.14382 2.34557e-25)
(31.4291 18.1472 0)
(28.6242 17.0571 -5.19163e-24)
(27.1379 10.583 -4.87623e-24)
(26.2192 -3.90222 0)
(24.569 -10.0122 0)
(20.9843 -10.5447 3.74099e-26)
(15.3122 -12.3726 2.15373e-25)
(14.6543 -8.86766 1.98627e-26)
(15.1296 -2.89047 -9.77119e-25)
(17.0463 -3.05099 0)
(15.5501 -1.64299 0)
(16.6654 -3.91801 -1.67769e-30)
(27.2969 6.92966 0)
(31.3164 4.87434 0)
(31.7328 1.74027 1.71262e-26)
(28.483 -4.94661 0)
(24.4531 -7.16457 0)
(15.0091 6.14106 1.03319e-25)
(14.0522 5.84779 1.84829e-25)
(13.0974 3.19897 2.13773e-26)
(11.8883 8.66174 0)
(17.2157 4.00792 0)
(14.7754 -0.723323 2.59926e-25)
(18.8032 -4.00944 3.06474e-26)
(10.9987 9.75368 -2.28005e-25)
(22.1572 5.80846 -2.52962e-27)
(28.9141 3.32916 -4.86456e-25)
(24.2696 2.29989 0)
(13.7097 13.7274 0)
(10.8732 15.2547 7.17445e-26)
(7.75122 14.8458 2.60549e-25)
(7.17623 13.7411 3.86959e-25)
(12.6694 10.7416 3.71737e-25)
(20.0542 2.76988 0)
(16.8639 -0.522609 -9.4616e-25)
(22.7119 -4.7532 -8.7367e-25)
(-3.78729 17.5471 -4.12034e-25)
(1.24991 13.9199 2.3873e-25)
(14.01 9.54682 -4.39883e-26)
(16.1365 12.2587 0)
(12.2014 14.9735 0)
(9.73804 15.3351 5.95896e-25)
(6.18612 14.7464 7.30172e-25)
(7.228 15.2165 3.81047e-25)
(18.3491 6.61086 7.53825e-26)
(23.7164 0.531372 0)
(23.3179 -1.17733 1.10123e-24)
(24.5685 -2.1906 -2.48046e-26)
(-1.2412 18.577 2.28513e-26)
(-1.21024 15.5335 6.05657e-25)
(3.8549 13.2866 -2.51774e-25)
(8.58482 12.5664 0)
(9.89568 10.9918 1.76577e-25)
(9.29712 10.7718 -5.96903e-25)
(9.52015 11.4676 8.13999e-25)
(10.9785 13.5734 1.05678e-24)
(21.1504 5.72671 -3.84621e-25)
(25.319 0.973085 -2.12335e-24)
(25.5415 0.809555 -3.57277e-24)
(26.0389 2.69933 -2.07276e-25)
(2.56541 16.4604 1.13673e-26)
(2.04083 15.0934 1.20243e-25)
(2.93286 14.2109 2.13004e-30)
(6.02896 12.0486 -5.85903e-26)
(8.27577 9.55373 -7.49856e-25)
(9.24746 8.53964 -6.85335e-25)
(9.36143 8.37761 6.00869e-25)
(10.0595 8.3084 9.32595e-26)
(9.01277 10.0442 -1.1763e-24)
(17.7342 6.07659 -2.7087e-24)
(25.8486 -1.71727 -1.31899e-25)
(24.7763 5.78143 -4.07564e-25)
(3.14222 14.7536 -1.41545e-25)
(2.76277 14.6994 0)
(2.65407 13.8832 -1.10494e-25)
(4.21159 12.9074 1.16102e-25)
(6.48433 10.0359 2.67387e-25)
(7.56421 8.55054 3.86318e-25)
(7.51194 6.84621 2.38923e-25)
(8.41555 6.7136 6.07221e-25)
(8.46137 6.14739 0)
(9.44639 7.53365 -5.86424e-29)
(18.0853 -0.764332 4.42459e-29)
(23.4166 5.61014 1.76375e-32)
(5.15991 14.4544 -1.22658e-25)
(3.51829 14.2173 -7.12136e-26)
(2.98188 13.5986 0)
(3.34662 12.7506 3.6082e-25)
(4.5074 10.4085 2.32556e-25)
(5.17407 8.38482 3.04933e-25)
(5.72906 6.73596 5.26941e-25)
(5.51368 6.28782 4.47745e-25)
(6.17379 5.23434 5.25664e-25)
(6.58906 5.74171 -9.12171e-26)
(11.3921 2.08193 3.84059e-24)
(22.7347 -0.300358 0)
(6.08013 12.0239 1.87028e-26)
(4.55243 11.3548 0)
(3.99211 10.799 1.07201e-25)
(3.60764 9.6839 3.96857e-25)
(4.27813 8.53326 -2.00656e-25)
(4.12281 6.87914 8.13368e-26)
(4.17941 6.15906 -2.85215e-30)
(3.63282 5.42459 1.46393e-26)
(4.13115 4.91987 3.97151e-27)
(3.59047 4.34729 0)
(6.79271 4.1704 -2.14459e-24)
(17.7842 -2.79043 -2.16745e-24)
(7.42181 10.0195 -2.90818e-26)
(6.19109 8.82995 -5.06251e-26)
(5.35795 8.16214 0)
(4.88398 6.96021 2.2163e-30)
(4.19955 6.23592 -1.97197e-25)
(3.1886 5.0018 -2.0293e-25)
(2.47716 4.8962 2.37464e-25)
(1.28303 4.67549 1.63841e-25)
(1.22362 4.3289 -7.21859e-25)
(0.869805 3.00328 5.21229e-25)
(1.34197 3.06949 -6.84364e-25)
(13.7671 -10.1607 2.62153e-24)
(12.7827 -0.510002 7.04686e-27)
(11.3865 -1.63907 -3.30049e-26)
(10.5822 -2.10425 -3.45275e-26)
(9.83108 -2.9064 0)
(9.5726 -3.47128 3.14352e-26)
(9.50015 -3.50857 5.52151e-25)
(9.82833 -3.06449 8.83818e-25)
(9.87246 -3.45391 8.34964e-25)
(9.47298 -5.29702 -5.64246e-27)
(10.8892 -13.5613 3.3608e-24)
(10.004 -37.0484 1.05631e-25)
(16.4717 -51.179 9.02533e-24)
(15.4251 2.18855 5.6327e-26)
(12.8508 0.775949 2.54021e-26)
(13.0439 -1.12196 0)
(11.5246 -3.00484 -1.10849e-25)
(12.1417 -4.23504 -3.16045e-26)
(12.0924 -6.1098 1.97712e-25)
(14.0354 -9.3167 0)
(14.7373 -14.0187 -3.24344e-25)
(12.6768 -22.6035 0)
(12.7567 -38.9426 0)
(12.9811 -48.1151 0)
(16.6392 -50.5186 0)
(17.287 3.33115 0)
(13.9223 1.13436 0)
(14.8537 -2.01831 0)
(12.5392 -4.33481 1.69778e-25)
(13.2556 -7.18959 -5.76222e-26)
(13.352 -10.8542 9.57808e-25)
(15.779 -14.9879 1.03038e-24)
(16.2136 -20.3571 0)
(12.5804 -31.9861 0)
(9.99293 -44.165 -8.2512e-25)
(9.89096 -48.9536 -1.21629e-24)
(11.963 -50.2148 0)
(19.2486 6.2392 0)
(15.0445 2.8347 -3.44714e-26)
(16.096 -1.46318 0)
(14.6167 -4.81261 0)
(14.1336 -9.07907 -3.29631e-26)
(12.5918 -13.4507 1.92352e-24)
(14.0874 -18.1116 2.09818e-24)
(14.1021 -23.2824 0)
(11.2148 -35.2385 0)
(7.31579 -44.3835 -1.74182e-25)
(6.95553 -46.6441 0)
(7.93124 -46.4391 0)
(21.012 7.42065 -3.52918e-25)
(17.0977 3.06096 -2.59041e-25)
(17.3183 -3.95325 0)
(15.8538 -6.56267 -1.86074e-25)
(15.0066 -9.33061 -3.87761e-25)
(12.5577 -14.7608 6.04493e-25)
(12.2685 -19.9664 1.05482e-25)
(11.9703 -25.1271 0)
(9.26299 -36.1513 0)
(5.45996 -42.4099 -4.71351e-25)
(4.35573 -43.375 7.23673e-26)
(4.00231 -42.0471 1.58762e-24)
(23.299 8.77112 2.07096e-25)
(20.4814 3.13867 3.27822e-25)
(21.5949 -3.54151 0)
(18.1193 -5.39335 2.86402e-26)
(17.4201 -10.1999 2.33556e-25)
(14.0394 -16.4934 2.54386e-24)
(12.926 -22.5164 4.0332e-24)
(11.6626 -29.7522 0)
(9.17154 -36.9123 0)
(5.12593 -39.5761 5.28001e-26)
(3.3692 -39.7589 -1.69309e-24)
(2.90832 -38.706 0)
(25.352 6.20809 -3.9321e-25)
(25.4617 0.0776523 3.3733e-25)
(26.5443 -5.43346 -3.93866e-25)
(24.7585 -8.3372 1.50279e-24)
(23.0923 -15.1873 -1.10462e-24)
(18.804 -21.224 -2.84423e-24)
(16.048 -28.9149 3.9088e-24)
(14.1377 -33.3863 -3.93251e-24)
(9.74148 -36.6101 0)
(6.20221 -37.5641 -2.03367e-24)
(3.78304 -36.5508 -1.65931e-24)
(2.17196 -35.1295 8.41428e-25)
(26.7805 3.28589 2.62139e-25)
(29.4679 -2.2958 4.54206e-24)
(29.9723 -7.80577 -2.83712e-24)
(30.8442 -11.2 3.11718e-24)
(27.5476 -17.3607 -4.53706e-25)
(23.3256 -23.513 -7.23284e-24)
(18.593 -29.8987 1.06253e-23)
(14.8462 -33.0375 -7.89708e-25)
(10.5759 -35.5483 -3.13325e-24)
(6.59031 -35.7109 6.28603e-30)
(3.31665 -34.5961 -2.80502e-24)
(2.15923 -32.7168 8.94654e-25)
(27.0404 -1.09902 -6.4586e-25)
(32.997 -6.15965 -4.24042e-30)
(34.1578 -11.8191 6.04359e-30)
(34.0499 -14.913 0)
(30.544 -20.1865 -3.62154e-25)
(25.394 -25.0734 -4.32837e-24)
(20.1544 -29.1378 -1.63655e-24)
(15.543 -31.0885 -1.29808e-24)
(10.7634 -32.4106 -1.56335e-24)
(6.72493 -32.2437 1.52493e-24)
(2.79836 -31.5945 -1.46671e-24)
(-0.87956 -30.1458 2.42073e-24)
(33.8036 -4.67251 -1.0376e-24)
(35.4966 -12.2138 -1.53334e-24)
(35.6831 -14.1929 2.07734e-24)
(36.9329 -16.468 7.68103e-26)
(34.6457 -21.3307 -4.9853e-24)
(28.8855 -25.8158 -4.79981e-24)
(21.9614 -28.9083 -1.33665e-24)
(17.1268 -28.5533 -9.25478e-25)
(12.3765 -28.8847 -4.85004e-25)
(7.55136 -27.4375 0)
(3.65359 -26.1777 -4.95762e-25)
(-0.936839 -24.8231 4.89131e-25)
(34.6644 -14.2482 5.21131e-25)
(37.8671 -10.6781 3.07753e-25)
(37.8158 -16.5877 0)
(37.934 -20.3047 -3.74694e-24)
(35.4591 -23.6224 -2.82545e-24)
(30.4535 -26.3878 -5.35019e-30)
(24.6171 -29.47 -1.26642e-24)
(19.3735 -28.4423 8.99399e-25)
(14.0967 -27.4815 3.49595e-26)
(8.44524 -25.1992 9.00415e-26)
(4.35204 -24.0124 0)
(-0.115748 -21.3327 -5.94257e-25)
(14.4831 -18.8491 -8.88499e-26)
(22.7444 -22.1231 2.15067e-26)
(32.0291 -22.3474 0)
(37.3795 -18.6071 -1.60673e-23)
(37.2629 -20.463 -1.79643e-23)
(32.506 -24.125 3.41069e-24)
(26.4829 -26.6213 -3.41427e-24)
(20.9662 -23.8677 5.45908e-25)
(15.0292 -21.5423 3.39166e-25)
(9.8502 -19.4434 0)
(4.80072 -18.213 9.49275e-26)
(0.902212 -15.2941 1.33324e-25)
(21.1381 -51.5679 -1.41619e-23)
(21.6346 -53.5941 -1.39327e-24)
(21.6535 -52.4205 2.59112e-24)
(19.1399 -49.7356 -1.4117e-24)
(16.846 -46.0715 -2.69326e-24)
(14.3867 -42.1471 -5.88709e-24)
(12.5761 -39.4126 -2.72886e-24)
(10.8511 -36.0044 -2.51379e-26)
(9.80493 -32.5957 0)
(8.4866 -27.3351 -2.49043e-26)
(6.56071 -20.4621 -6.14654e-26)
(2.29131 -18.1847 2.1514e-26)
(21.3428 -48.1639 0)
(22.9991 -46.5877 0)
(24.1348 -44.3428 -1.19365e-24)
(21.2969 -41.0963 0)
(17.0197 -38.3942 2.55057e-25)
(13.3092 -36.4714 0)
(11.5505 -35.1547 -1.61693e-26)
(10.8167 -33.2796 1.22731e-25)
(10.6003 -30.8449 5.84268e-26)
(10.0386 -27.8238 0)
(9.23191 -21.8739 -1.26624e-26)
(2.35687 -19.5748 4.48994e-26)
(15.1132 -48.1012 0)
(16.1869 -44.807 8.62573e-25)
(17.5945 -39.7299 -1.42153e-24)
(17.5961 -35.9048 0)
(15.2661 -34.7037 0)
(12.4533 -34.0566 -2.67186e-25)
(11.8104 -33.2536 -5.10213e-26)
(12.1373 -31.9944 -1.36402e-26)
(12.9255 -30.0057 -6.06372e-26)
(12.5092 -27.7123 0)
(11.5286 -23.5998 0)
(1.07957 -20.2608 7.41845e-27)
(10.5009 -42.8811 0)
(12.9242 -37.2587 0)
(16.6158 -30.9926 1.04612e-24)
(17.72 -28.4112 0)
(17.4236 -28.3334 0)
(16.041 -30.3378 -2.9311e-25)
(15.9768 -30.9059 -8.68194e-26)
(16.2464 -30.7137 -5.37893e-27)
(16.452 -29.4702 0)
(15.9546 -27.7207 0)
(14.4868 -24.5646 1.09932e-26)
(6.54512 -21.8321 -8.42344e-27)
(5.15 -38.543 -3.96967e-24)
(7.72506 -33.0502 1.39266e-25)
(11.0546 -27.9446 -1.00059e-24)
(13.1964 -25.8318 0)
(14.4876 -25.2231 0)
(16.4482 -27.9402 1.98136e-25)
(17.8259 -30.9833 -7.43749e-26)
(18.1377 -31.162 -2.95013e-26)
(18.0238 -30.0925 -2.67036e-26)
(17.5295 -27.6771 0)
(15.84 -24.4896 3.10766e-26)
(11.0795 -22.6038 3.35974e-26)
(3.93328 -35.2111 -1.84828e-24)
(6.29962 -30.3747 1.28956e-24)
(9.02143 -26.6399 -1.208e-24)
(11.6048 -24.3705 0)
(13.3739 -22.946 0)
(14.7634 -23.5673 -3.64478e-25)
(17.8161 -29.239 -3.39695e-25)
(18.7031 -31.2796 4.74662e-26)
(18.6122 -30.8762 -3.91222e-26)
(18.2794 -28.7594 0)
(16.4813 -23.9917 -8.1771e-26)
(12.5464 -21.3053 -8.51212e-26)
(2.56419 -33.383 -1.17469e-24)
(5.16383 -29.8654 2.02495e-24)
(8.17353 -25.7405 -3.04843e-26)
(10.5338 -22.4698 0)
(11.7142 -20.5068 8.62563e-25)
(12.7448 -19.4137 -9.6457e-25)
(14.1109 -21.6609 8.37046e-25)
(17.741 -29.8881 1.48671e-25)
(18.126 -31.3818 -7.2193e-26)
(18.1762 -29.3578 -7.68428e-27)
(16.5474 -23.9742 3.09072e-25)
(12.593 -20.1031 1.68868e-25)
(1.26534 -32.0307 -1.23464e-24)
(2.40497 -28.9379 1.61036e-25)
(6.17395 -24.6901 -8.04266e-31)
(8.467 -18.9934 1.0546e-24)
(9.48999 -15.7519 -4.74945e-26)
(10.3231 -14.4141 -3.88457e-24)
(10.1989 -15.1469 1.49062e-24)
(11.4606 -19.7209 6.70867e-25)
(13.1107 -28.1622 -5.26372e-26)
(13.7197 -27.7779 1.05903e-25)
(13.3786 -22.6965 -3.24691e-25)
(12.3183 -19.2902 -2.89233e-25)
(-1.1487 -28.8798 -2.06942e-24)
(0.663497 -26.6519 0)
(4.31479 -22.3774 -9.20211e-25)
(5.94085 -15.901 9.06175e-25)
(6.72951 -11.6282 1.33153e-24)
(7.59957 -10.3578 1.45588e-24)
(7.54601 -11.9058 1.2046e-24)
(5.35477 -13.7059 3.24563e-25)
(4.59788 -18.3639 0)
(6.19475 -17.3691 -2.34116e-30)
(7.05119 -14.6731 -1.7233e-30)
(11.1865 -18.4443 1.62168e-30)
(-3.04862 -23.7745 -2.08903e-25)
(-2.42424 -22.5137 7.6614e-25)
(-0.0252863 -19.8189 0)
(2.49165 -14.7591 1.77149e-24)
(1.99795 -13.5193 9.85264e-25)
(-0.599466 -13.7544 7.79842e-25)
(-2.57347 -15.2738 4.95616e-25)
(-2.62227 -15.0014 1.85101e-25)
(-0.672541 -15.42 1.10497e-25)
(2.2539 -11.5022 -6.81197e-26)
(4.34416 -10.1214 7.5424e-25)
(8.35372 -16.4532 9.18813e-25)
(-4.51276 -19.751 4.94579e-25)
(-5.55185 -18.7028 0)
(-4.98305 -17.3092 -2.37125e-25)
(-5.01276 -15.2268 3.63275e-25)
(-5.18547 -15.0678 -2.35484e-25)
(-5.9467 -13.9964 -1.68831e-26)
(-4.86583 -13.0811 -8.15284e-31)
(-2.86301 -9.32463 3.87995e-26)
(-1.37478 -7.70422 2.2515e-25)
(0.855408 -6.34324 0)
(2.83743 -7.9793 -5.95411e-25)
(4.9563 -13.3391 3.12457e-25)
(-2.92913 -14.9207 -3.04324e-25)
(-4.28963 -12.7517 1.02374e-25)
(-3.25688 -11.7023 0)
(-3.55043 -10.9949 1.93903e-31)
(-3.32762 -10.3827 -4.60889e-26)
(-3.31427 -9.28969 -1.79093e-25)
(-2.37949 -7.1714 1.03324e-25)
(-1.74358 -5.34975 1.34841e-25)
(0.0503617 -5.11848 1.60512e-25)
(0.819198 -5.6278 -2.38142e-25)
(2.6087 -8.60722 -6.93965e-25)
(-1.5625 -13.9628 -6.70953e-25)
(-2.16411 -13.3105 0)
(-3.24913 -10.2371 -3.10014e-27)
(-3.53351 -9.2209 -6.1777e-27)
(-3.69996 -7.99405 0)
(-3.76153 -7.39133 4.80578e-27)
(-4.40455 -6.47892 2.23897e-25)
(-5.47917 -6.71622 6.9714e-25)
(-6.84475 -7.14519 1.39516e-25)
(-8.7167 -8.04622 1.123e-25)
(-9.86084 -8.89517 -6.98045e-26)
(-10.3277 -9.06512 1.56597e-25)
(-10.6723 -8.39607 4.16501e-25)
(0.89918 -17.6623 1.67716e-26)
(-0.79365 -13.1793 1.92257e-26)
(-1.988 -12.5669 0)
(-2.84678 -10.8991 1.303e-26)
(-3.97349 -9.62922 -5.07183e-26)
(-5.58911 -7.88614 -1.77986e-26)
(-7.70946 -6.90488 0)
(-9.1803 -7.49892 -6.94114e-26)
(-10.6827 -9.15883 0)
(-11.5797 -10.1632 0)
(-12.3777 -10.7621 0)
(-13.1667 -11.3526 0)
(1.82242 -20.1115 -1.6585e-31)
(1.55321 -15.039 0)
(-1.24403 -15.2377 0)
(-1.95517 -13.3776 2.31143e-27)
(-3.89924 -12.5056 4.21738e-26)
(-6.43079 -9.44788 6.23356e-26)
(-9.42645 -7.58955 7.29714e-25)
(-11.6983 -6.39488 0)
(-12.8067 -7.17196 0)
(-12.587 -8.55212 -8.73435e-26)
(-12.7492 -10.1756 1.70018e-26)
(-13.6068 -11.2326 0)
(2.53143 -20.7075 4.71103e-27)
(2.2218 -17.8782 1.30913e-26)
(-1.52119 -18.1356 0)
(-1.83773 -15.3744 0)
(-4.40532 -14.9565 -6.87332e-26)
(-7.94011 -11.9032 3.66423e-25)
(-11.5266 -9.61694 1.22772e-24)
(-13.4379 -7.81969 0)
(-14.1704 -8.00542 0)
(-13.9851 -8.79984 -3.31646e-25)
(-14.1408 -10.3727 0)
(-15.0947 -12.4044 0)
(1.5575 -21.892 -3.87203e-26)
(0.332561 -19.9657 -2.42057e-26)
(-1.84784 -20.3258 0)
(-2.43052 -17.146 2.27912e-25)
(-6.66669 -16.3649 -4.85753e-26)
(-11.0417 -14.8239 1.97833e-25)
(-15.6957 -11.907 -1.10748e-25)
(-17.6046 -9.68277 0)
(-17.4821 -9.36716 0)
(-17.1085 -9.91716 7.90898e-25)
(-17.437 -11.5939 5.49651e-26)
(-20.0163 -13.4491 -2.61196e-25)
(0.897063 -22.5674 4.89094e-26)
(-0.0624074 -21.1359 9.01224e-26)
(-1.3251 -21.4953 0)
(-3.20655 -19.9057 9.16505e-26)
(-7.29071 -19.3172 -3.27239e-26)
(-13.2453 -19.415 9.84873e-25)
(-20.1595 -15.8398 1.82844e-24)
(-21.3131 -13.2154 0)
(-20.4807 -12.3173 0)
(-19.9444 -12.5795 -2.09424e-25)
(-21.6404 -12.8545 -2.16573e-24)
(-25.8818 -11.1053 0)
(0.724182 -23.8783 -1.93427e-25)
(-0.677741 -22.4035 -5.22494e-26)
(-3.79047 -22.6902 -1.49852e-25)
(-5.40381 -21.748 1.99832e-25)
(-9.46665 -22.8634 -1.99819e-25)
(-17.5415 -23.2016 -8.98498e-25)
(-23.2542 -18.8603 1.51049e-24)
(-23.9588 -16.8889 -1.43065e-24)
(-23.2177 -16.1132 0)
(-23.9193 -15.5742 1.46001e-24)
(-27.3833 -12.5903 -3.12805e-24)
(-26.9058 -8.60731 -5.36946e-25)
(-1.17334 -25.2368 -1.68722e-25)
(-2.71744 -25.7268 8.33286e-25)
(-5.66482 -24.8619 -4.52166e-25)
(-7.72997 -24.4637 4.67017e-25)
(-13.0609 -25.9836 -9.69492e-26)
(-20.9653 -26.7405 -1.55798e-24)
(-25.4817 -23.2137 5.24404e-24)
(-26.1769 -22.5642 -4.21681e-25)
(-26.4964 -21.0876 -2.32889e-24)
(-29.1577 -18.4937 6.84703e-29)
(-29.3058 -13.1528 -4.78247e-24)
(-26.7807 -8.32924 -4.43356e-25)
(-3.00739 -25.9516 9.38921e-26)
(-4.81701 -28.8126 -2.65237e-30)
(-8.0233 -27.5199 4.65297e-30)
(-10.7116 -27.5546 0)
(-15.647 -28.649 -3.42303e-26)
(-22.8565 -29.4116 -1.15175e-24)
(-27.8295 -26.9078 -1.25796e-24)
(-28.5991 -26.5868 -2.10222e-24)
(-29.2197 -25.3242 -3.36229e-24)
(-31.7075 -21.2869 2.76282e-24)
(-31.1709 -14.0846 -1.69661e-24)
(-26.783 -8.88295 2.19548e-24)
(-9.08764 -28.6495 3.33379e-25)
(-6.62939 -27.6593 -4.58095e-25)
(-4.93179 -17.8655 5.28739e-25)
(-2.48629 -10.4333 4.38079e-26)
(-3.87284 -9.67734 -3.04614e-25)
(-9.6861 -14.5706 -2.16966e-25)
(-22.6295 -25.5678 -1.96343e-25)
(-29.8485 -32.1952 -1.41677e-24)
(-31.6333 -29.7865 -1.81261e-24)
(-34.4279 -24.6423 0)
(-32.5886 -16.4905 2.40642e-24)
(-27.4268 -10.0929 3.65123e-24)
(-5.14871 -8.15392 2.43417e-26)
(-3.60026 -8.11049 7.77284e-27)
(-1.47706 -6.81672 0)
(0.961622 -4.56517 -5.27288e-25)
(0.570422 -1.96638 -4.55445e-25)
(-0.565781 -1.43712 2.24522e-31)
(-3.33448 -4.91082 -1.29655e-25)
(-11.7764 -14.6237 7.39197e-26)
(-21.109 -23.9813 6.67817e-26)
(-34.4577 -30.1701 -1.77299e-24)
(-31.8976 -21.3152 0)
(-27.2272 -12.6223 -2.3877e-24)
(-3.02118 -5.01077 4.85466e-25)
(-2.66544 -4.25493 3.15091e-26)
(-1.84108 -4.33576 0)
(-0.341873 -3.73087 -2.24968e-24)
(0.203711 -1.87967 -6.02439e-25)
(-1.19515 0.614247 5.01032e-25)
(-4.112 3.05894 -4.47446e-25)
(-6.03635 3.16811 1.65949e-26)
(-8.26995 0.0464322 -2.33419e-25)
(-18.0946 -13.5438 0)
(-15.9555 -13.3674 -9.54027e-25)
(-10.2521 -10.5425 -2.70934e-25)
(-11.1063 -7.63104 -7.03653e-25)
(-10.8351 -7.25195 -1.04524e-25)
(-10.4887 -6.4315 7.32211e-25)
(-10.2755 -5.6809 -7.26983e-26)
(-9.53504 -4.85887 7.01812e-25)
(-9.45442 -3.77593 7.96854e-25)
(-9.80774 -1.08594 6.22736e-28)
(-11.7406 1.36599 -2.34452e-26)
(-14.5622 1.33646 0)
(-15.2929 0.696198 4.64235e-26)
(-14.7709 0.108846 4.45132e-26)
(-13.5412 0.968159 -4.70659e-27)
(-13.1577 -11.9449 0)
(-13.4017 -11.2978 0)
(-13.2407 -8.94004 -3.02191e-25)
(-13.1051 -7.10299 0)
(-12.3873 -4.4195 4.57735e-26)
(-12.6323 -2.49302 0)
(-12.9259 -1.19185 -2.88294e-26)
(-13.4699 1.94984 9.75385e-26)
(-13.9942 2.43575 1.59707e-25)
(-14.4634 1.28301 0)
(-14.004 -1.24492 -2.39178e-26)
(-12.7437 0.789025 -1.11437e-26)
(-14.2494 -12.3088 0)
(-14.4528 -13.2409 1.26597e-24)
(-14.6382 -10.6132 1.04002e-24)
(-14.0977 -6.47755 0)
(-14.0033 -3.80986 0)
(-16.0534 -2.00683 3.77573e-26)
(-16.5129 -1.50647 -4.70532e-25)
(-15.9677 0.0442684 3.77156e-25)
(-14.5229 1.91982 3.60858e-25)
(-13.7811 2.12268 0)
(-13.5491 2.12769 0)
(-11.374 3.8065 0)
(-17.9933 -13.9226 0)
(-19.0797 -13.2164 0)
(-18.6096 -10.3449 9.68094e-25)
(-17.6796 -6.60483 0)
(-19.2644 -4.51935 0)
(-17.5198 -3.41013 -1.19166e-25)
(-15.2274 -1.77948 -2.40746e-25)
(-17.1564 0.8102 -4.01342e-26)
(-17.2572 4.14576 0)
(-14.8058 5.35838 0)
(-13.6441 4.34926 3.76967e-26)
(-10.6531 5.97356 0)
(-24.4841 -11.2786 -1.98895e-24)
(-25.9301 -8.70951 1.06908e-25)
(-23.5116 -6.34773 6.38248e-25)
(-24.2795 -3.56718 0)
(-21.4233 -2.80533 0)
(-16.6789 -0.0680051 5.51956e-26)
(-17.724 2.85601 -6.20484e-26)
(-22.7101 4.21909 9.77625e-28)
(-23.3418 2.99824 -1.17142e-25)
(-19.481 5.34107 0)
(-17.85 8.45115 -1.64924e-27)
(-12.4939 8.91196 -4.52813e-27)
(-25.6877 -8.03086 -1.22925e-24)
(-25.0269 -4.84178 1.27785e-24)
(-24.3025 -2.25745 3.95707e-25)
(-23.2792 -1.31086 0)
(-21.2564 2.47694 0)
(-21.2608 5.21419 7.99051e-27)
(-27.815 6.56547 1.26702e-25)
(-30.1906 0.731637 -1.21399e-26)
(-28.2656 -3.29547 -1.15745e-25)
(-24.5659 -3.60791 0)
(-20.8926 5.24061 -9.32568e-27)
(-17.368 8.84649 8.62572e-27)
(-24.9524 -4.79964 5.97246e-26)
(-24.6827 -1.41501 1.02598e-24)
(-24.3829 -0.270821 3.63317e-25)
(-23.268 3.36046 0)
(-22.4601 7.40438 -5.22346e-26)
(-27.4315 8.03032 3.89402e-25)
(-32.7319 -1.67019 -2.8918e-25)
(-33.5786 -7.15171 6.12002e-26)
(-30.0899 -9.64364 -1.86939e-25)
(-27.027 -8.29176 2.96102e-26)
(-24.0962 -1.12985 -2.5768e-26)
(-19.7104 4.12768 1.1261e-27)
(-22.408 -3.87489 9.17381e-26)
(-22.8938 0.355851 4.34898e-25)
(-22.8367 3.50208 -3.47425e-30)
(-23.783 7.60206 1.73944e-25)
(-25.8497 10.3459 4.2715e-25)
(-33.5826 2.99782 1.04392e-24)
(-39.827 -8.46436 -2.35464e-25)
(-38.1502 -12.2589 6.76133e-25)
(-33.1039 -12.5255 3.30487e-26)
(-28.2512 -11.8718 2.8145e-25)
(-24.2319 -8.408 -6.08804e-25)
(-20.7121 0.411625 2.28738e-26)
(-21.9976 -4.49868 -1.18451e-24)
(-19.5789 -0.168796 0)
(-20.8079 3.36009 -2.3646e-25)
(-21.6673 11.0326 1.46094e-25)
(-27.9126 9.97734 -6.80224e-25)
(-43.9284 -5.74139 -8.82889e-26)
(-46.4911 -12.915 5.47412e-25)
(-41.9756 -16.0779 3.38672e-25)
(-38.4161 -15.622 0)
(-31.0627 -15.1428 -5.96753e-30)
(-26.361 -12.1135 8.78182e-31)
(-21.2449 -4.41752 1.02468e-33)
(-22.5572 -5.59659 -1.34891e-24)
(-18.1563 -1.31695 -4.09687e-26)
(-16.8517 2.07292 0)
(-21.4585 12.1876 7.48482e-26)
(-33.2147 8.00063 -4.65391e-25)
(-48.7909 -9.89402 -8.24036e-26)
(-49.3305 -14.1998 7.92275e-25)
(-42.4411 -15.0874 6.98513e-25)
(-39.6358 -15.8851 5.23337e-25)
(-33.1373 -14.5961 -9.45119e-26)
(-27.5386 -12.5325 7.86542e-25)
(-22.088 -5.43905 3.39559e-25)
(-23.8933 -5.76815 1.47966e-24)
(-19.7865 -3.78376 0)
(-13.4679 1.86977 -2.24456e-26)
(-19.7038 13.2615 6.25761e-25)
(-36.0927 4.6388 2.06639e-25)
(-46.3823 -11.6724 6.42689e-25)
(-31.9415 -13.8355 -2.10867e-30)
(-29.6756 -10.5441 3.49259e-25)
(-21.7911 -9.60542 4.2066e-25)
(-20.2915 -9.12092 0)
(-18.1971 -9.7342 -1.94611e-25)
(-19.7626 -6.55597 2.93954e-25)
(-10.975 -7.76328 4.40925e-25)
(-14.8004 -5.35385 -7.11665e-25)
(-11.9496 -0.207799 0)
(-18.9373 12.9311 1.51829e-31)
(-34.9531 5.2618 5.78008e-26)
(-39.1729 -9.22662 9.68131e-25)
(-19.4639 -5.90233 -1.71996e-25)
(-13.8523 -4.67801 5.51159e-25)
(-11.6506 -5.09383 4.78955e-25)
(-11.7804 -5.56642 -2.21922e-25)
(-12.2455 -5.18922 -3.26296e-25)
(-15.2551 -0.75474 -2.68661e-26)
(-13.532 3.84352 -2.41465e-26)
(-14.4656 4.35814 -1.10119e-25)
(-14.6767 4.41339 -1.09999e-25)
(-14.5452 4.30516 0)
(-13.6019 5.32118 1.37236e-25)
(-13.5365 6.176 7.90067e-25)
(-13.889 6.03919 4.82182e-25)
(-13.8794 6.10737 -3.99154e-25)
(-14.3909 8.1427 4.1386e-25)
(-11.9668 16.9012 1.54756e-24)
(-13.2955 27.2187 9.22778e-25)
(-17.3764 30.6194 3.43913e-24)
(-14.2182 3.44724 -4.74224e-27)
(-14.5952 3.66937 -7.1112e-26)
(-14.7261 3.39652 0)
(-14.7964 3.46972 -3.87573e-25)
(-14.9107 4.67088 -8.92392e-26)
(-14.5076 7.19451 4.19403e-25)
(-15.7799 9.71006 0)
(-16.4017 15.4205 -7.45796e-25)
(-16.6661 24.4032 0)
(-16.6515 30.2226 0)
(-16.9563 32.7297 0)
(-18.7303 34.7166 0)
(-14.9976 3.75994 -9.18086e-32)
(-14.2641 4.69241 0)
(-14.1369 4.31979 0)
(-13.9978 4.50075 2.31905e-25)
(-14.1553 5.85521 -3.37087e-26)
(-13.7011 9.3741 1.09637e-24)
(-14.6536 14.1079 1.8549e-24)
(-15.3221 20.1994 0)
(-15.2572 26.0821 0)
(-14.8133 30.8694 -8.74772e-25)
(-14.4246 33.7878 -8.32022e-25)
(-15.1965 36.7401 0)
(-17.6281 -0.110002 -7.45099e-27)
(-15.2831 2.09033 -8.27818e-27)
(-14.3521 2.76581 0)
(-13.5861 3.76566 0)
(-13.1867 5.55098 -1.61425e-25)
(-12.3033 10.1859 1.43527e-24)
(-11.7006 15.8469 2.10946e-24)
(-12.0536 21.0676 0)
(-11.2083 26.626 0)
(-11.5454 32.1377 -2.095e-26)
(-11.1853 35.2133 0)
(-11.6287 37.388 0)
(-20.5275 -1.88948 -3.62006e-26)
(-16.7642 -0.0514308 -1.19562e-25)
(-14.6704 2.21537 0)
(-13.436 4.1686 -8.01469e-25)
(-11.9273 6.34711 -9.55272e-25)
(-11.0501 11.139 -4.24027e-25)
(-10.0943 16.884 1.14583e-24)
(-9.61372 21.9587 0)
(-8.77195 27.8299 0)
(-8.4358 32.9829 -1.32428e-25)
(-8.15966 35.4348 1.93983e-26)
(-7.72298 37.3197 7.66132e-25)
(-22.5566 -5.06976 9.78067e-26)
(-18.1153 -4.35859 1.66979e-25)
(-15.8868 0.258846 0)
(-13.8606 2.87877 -1.0103e-24)
(-14.2813 6.66386 1.21486e-24)
(-11.5876 13.365 9.5896e-25)
(-10.1585 19.1974 4.10618e-24)
(-8.75806 25.1648 0)
(-7.96564 31.2919 0)
(-6.85708 33.7912 4.60309e-25)
(-5.76384 34.8757 -3.7785e-25)
(-5.05478 36.0825 0)
(-23.967 -6.95581 -1.64226e-25)
(-20.2401 -5.50054 -1.36145e-24)
(-18.6875 0.847548 -2.66645e-25)
(-16.5097 6.70437 -5.28311e-25)
(-16.8712 11.2414 3.46237e-25)
(-15.0095 16.0446 2.86686e-25)
(-13.3808 23.1858 6.88538e-26)
(-12.9102 26.0496 -1.95313e-25)
(-11.8103 25.4812 0)
(-9.34205 27.0173 1.68446e-25)
(-5.20761 33.8558 -3.69914e-24)
(-3.02518 34.6107 8.72483e-25)
(-25.4644 -8.91204 2.72708e-25)
(-24.6858 -6.14152 1.054e-24)
(-23.4379 2.62302 -3.22258e-25)
(-22.6341 8.89056 1.73242e-25)
(-22.1291 15.4307 -2.03403e-24)
(-20.3057 20.97 -5.36304e-25)
(-17.9437 20.5476 3.66066e-25)
(-17.3295 17.4782 2.09797e-26)
(-16.3866 13.6976 -6.506e-26)
(-13.9787 15.0563 1.76945e-30)
(-10.0764 20.1022 -9.69091e-26)
(-5.62093 26.1004 7.35914e-26)
(-28.7149 -6.64066 4.69008e-25)
(-30.8909 -1.77087 -1.55551e-29)
(-30.363 8.70969 6.48054e-30)
(-28.5191 15.0805 0)
(-24.5115 16.1822 -6.25362e-26)
(-21.4197 12.117 -2.02674e-25)
(-20.0269 6.99744 -7.64454e-26)
(-19.2949 4.43834 -7.68762e-26)
(-17.8138 3.16683 -1.84079e-25)
(-16.101 3.7817 1.44127e-25)
(-13.6436 8.00829 -6.23258e-26)
(-9.96788 14.2469 -6.93709e-26)
(-30.5704 -2.81012 4.1654e-25)
(-31.0141 1.21875 -2.49441e-25)
(-24.7468 4.36899 3.38093e-25)
(-19.7168 4.56334 -1.70136e-26)
(-16.9994 3.07111 -2.11966e-25)
(-16.702 0.0650064 -2.57344e-25)
(-16.5995 -0.873061 -1.0604e-25)
(-16.3646 -0.746932 -1.05427e-25)
(-15.8106 -0.661749 -5.87375e-26)
(-14.7521 -0.378008 0)
(-13.85 1.03836 -1.4727e-25)
(-12.4399 5.19574 2.79124e-25)
(-9.00836 1.16285 -1.06954e-26)
(-9.52314 0.189268 -1.05871e-27)
(-8.00146 -1.85875 0)
(-7.31762 -2.5419 -2.96229e-25)
(-7.49882 -2.18201 -3.51077e-25)
(-9.36293 -2.19219 -9.97194e-31)
(-11.0728 -1.96316 -4.09038e-25)
(-11.7563 -1.34477 1.17607e-25)
(-11.5939 -0.817745 2.48495e-26)
(-11.2865 -0.502526 3.60769e-26)
(-11.5304 -0.28493 0)
(-11.7177 0.835208 -7.27168e-25)
(-3.76742 0.170681 6.70695e-26)
(-3.90511 -0.0170757 9.52331e-27)
(-4.53079 -1.05902 0)
(-4.7871 -1.32481 -1.68566e-24)
(-4.64715 -0.97983 -4.27142e-25)
(-4.95351 -0.459486 3.79748e-25)
(-6.00642 -0.198524 -1.62794e-24)