/*--------------------------------*- C++ -*----------------------------------*\
| =========                 |                                                 |
| \\      /  F ield         | OpenFOAM: The Open Source CFD Toolbox           |
|  \\    /   O peration     | Version:  2212                                  |
|   \\  /    A nd           | Website:  www.openfoam.com                      |
|    \\/     M anipulation  |                                                 |
\*---------------------------------------------------------------------------*/
FoamFile
{
    version     2.0;
    format      ascii;
    arch        "LSB;label=32;scalar=64";
    class       volScalarField;
    location    "1.5";
    object      alphas;
}
// * * * * * * * * * * * * * * * * * * * * * * * * * * * * * * * * * * * * * //

dimensions      [0 0 0 0 0 0 0];

internalField   nonuniform List<scalar> 
3312
(
0.999999
0.999999
0.999999
0.999999
0.999999
0.999999
0.999998
0.999996
0.999994
0.999993
0.999992
0.999991
0.999997
0.999998
0.999998
0.999998
0.999999
0.999998
0.999996
0.999992
0.999989
0.999989
0.999989
0.999988
0.999997
0.999997
0.999998
0.999998
0.999998
0.999998
0.999994
0.99999
0.999988
0.999988
0.999988
0.999987
0.999997
0.999998
0.999998
0.999998
0.999998
0.999998
0.999993
0.999988
0.999988
0.999988
0.999987
0.999985
0.999998
0.999999
0.999999
0.999999
0.999999
0.999998
0.999993
0.999989
0.999989
0.99999
0.999988
0.999985
0.999999
0.999999
1
1
0.999999
0.999999
0.999995
0.99999
0.999991
0.999991
0.999988
0.999985
0.999999
0.999999
1
1
1
0.999999
0.999997
0.999992
0.999993
0.999994
0.999991
0.999986
0.999999
0.999999
1
1
1
0.999999
0.999998
0.999994
0.999994
0.999995
0.999995
0.999993
0.999999
1
1
1
1
1
0.999999
0.999996
0.999994
0.999995
0.999995
0.999996
0.999999
0.999999
1
1
1
1
0.999999
0.999998
0.999997
0.999997
0.999997
0.999997
0.999999
0.999999
1
1
1
1
0.999989
0.999955
0.999932
0.999869
0.999763
0.999687
0.999999
0.999999
0.999857
0.999464
0.998664
0.997035
0.993977
0.989554
0.985099
0.977112
0.967402
0.960888
0.99999
0.999989
0.999987
0.999984
0.99998
0.999978
0.999979
0.999979
0.999978
0.999977
0.999969
0.99953
0.999987
0.999986
0.999983
0.99998
0.999977
0.999973
0.999974
0.999973
0.999966
0.999956
0.999947
0.999533
0.999985
0.999982
0.999978
0.999974
0.999969
0.999948
0.99991
0.999858
0.999659
0.999578
0.999755
0.999411
0.999983
0.99998
0.999976
0.99997
0.999956
0.999897
0.99969
0.999085
0.997938
0.998226
0.999108
0.998893
0.999982
0.999979
0.999973
0.999964
0.999936
0.999832
0.999447
0.998132
0.996423
0.996979
0.998338
0.998141
0.999982
0.999978
0.99997
0.999951
0.999905
0.999784
0.999389
0.998178
0.996428
0.996704
0.997977
0.997634
0.999982
0.999978
0.999966
0.999931
0.999854
0.999768
0.999619
0.999046
0.997493
0.996692
0.997613
0.997501
0.999988
0.999978
0.999961
0.999905
0.999806
0.999783
0.999816
0.999761
0.99909
0.997002
0.996955
0.997256
0.999995
0.999992
0.999967
0.999873
0.999801
0.999802
0.99987
0.999892
0.999873
0.999567
0.99746
0.996484
0.999997
0.999997
0.999995
0.99996
0.999858
0.99983
0.999878
0.999893
0.999894
0.999871
0.998898
0.994473
0.999753
0.999954
0.999999
0.999999
0.999981
0.999922
0.999882
0.999894
0.999895
0.999877
0.999649
0.99062
0.961132
0.968912
0.983587
0.991156
0.99746
0.99984
0.999887
0.999888
0.999896
0.999868
0.999587
0.987961
0.999998
0.999998
0.999998
0.999998
0.999998
0.999998
0.999998
0.999998
0.999997
0.999997
0.999997
0.999996
0.999998
0.999998
0.999998
0.999998
0.999998
0.999998
0.999998
0.999997
0.999996
0.999996
0.999995
0.999991
0.999998
0.999998
0.999998
0.999998
0.999998
0.999998
0.999997
0.999996
0.999995
0.999994
0.99999
0.999974
0.999997
0.999997
0.999997
0.999998
0.999998
0.999997
0.999996
0.999995
0.999995
0.999993
0.999987
0.999955
0.999997
0.999997
0.999997
0.999997
0.999998
0.999996
0.999995
0.999994
0.999994
0.999992
0.999978
0.999916
0.999997
0.999996
0.999996
0.999997
0.999997
0.999996
0.999995
0.999994
0.999993
0.999989
0.999958
0.999826
0.999997
0.999995
0.999995
0.999996
0.999997
0.999996
0.999995
0.999994
0.999992
0.999984
0.999936
0.999804
0.999996
0.999992
0.999993
0.999993
0.999994
0.999995
0.999995
0.999993
0.999991
0.999978
0.999933
0.999858
0.999995
0.999992
0.999993
0.999994
0.999994
0.999995
0.999995
0.999993
0.99999
0.999975
0.999946
0.999937
0.999993
0.999993
0.999997
0.999998
0.999996
0.999996
0.999995
0.999994
0.99999
0.999977
0.999959
0.99996
0.999993
0.999997
0.999998
0.999998
0.999998
0.999997
0.999996
0.999994
0.999991
0.99998
0.999968
0.999969
0.999996
0.999997
0.999875
0.99997
0.999998
0.999998
0.999996
0.999995
0.999993
0.999988
0.999974
0.999816
0.999992
0.999977
0.999922
0.999765
0.999482
0.999182
0.99902
0.999015
0.999326
0.999676
0.999863
0.99993
0.999977
0.999913
0.999703
0.999283
0.998847
0.998668
0.998679
0.998874
0.999208
0.999476
0.999696
0.999809
0.999905
0.999711
0.999383
0.999104
0.998993
0.998974
0.998969
0.998994
0.999024
0.999019
0.999205
0.99944
0.99984
0.999601
0.999352
0.999239
0.999224
0.999224
0.999179
0.99909
0.99894
0.998691
0.998142
0.997218
0.999745
0.999506
0.999346
0.999292
0.999265
0.999243
0.99922
0.999127
0.998943
0.998615
0.996509
0.988873
0.9996
0.99942
0.999331
0.999271
0.999186
0.999113
0.999103
0.999082
0.998916
0.998614
0.995231
0.976826
0.999619
0.99952
0.999494
0.99945
0.999259
0.99893
0.998787
0.998832
0.998762
0.99856
0.995224
0.975576
0.999823
0.99984
0.999857
0.999858
0.99975
0.999262
0.998584
0.998436
0.998404
0.998334
0.996199
0.975557
0.999956
0.999976
0.999983
0.999984
0.999978
0.999735
0.998811
0.99825
0.998097
0.998022
0.996246
0.981235
0.999969
0.999981
0.999987
0.999987
0.999972
0.999741
0.99904
0.998435
0.998123
0.997841
0.996622
0.992597
0.999969
0.999939
0.999793
0.999509
0.999175
0.998894
0.998616
0.998478
0.998407
0.99832
0.998361
0.998702
0.999107
0.996822
0.991816
0.983255
0.972231
0.964154
0.967805
0.982565
0.995301
0.999364
0.999676
0.999667
0.999998
0.999998
0.999998
0.999998
0.999999
0.999999
0.999999
0.999999
0.999999
0.999998
0.999997
0.999991
0.999998
0.999999
0.999999
0.999999
0.999999
0.999999
0.999999
0.999999
0.999998
0.999997
0.999996
0.999989
0.999999
0.999999
0.999999
0.999999
0.999999
0.999999
0.999999
0.999998
0.999997
0.999997
0.999995
0.999987
0.999999
0.999999
0.999999
0.999999
0.999999
0.999999
0.999999
0.999998
0.999997
0.999996
0.999993
0.999985
0.999999
0.999999
0.999999
0.999999
0.999999
0.999999
0.999999
0.999997
0.999996
0.999995
0.999992
0.999983
0.999998
0.999999
0.999999
0.999999
0.999999
0.999999
0.999998
0.999996
0.999995
0.999994
0.999991
0.999984
0.999998
0.999999
0.999999
0.999999
0.999999
0.999999
0.999997
0.999995
0.999994
0.999993
0.999991
0.999985
0.999998
0.999999
0.999999
0.999999
0.999999
0.999998
0.999996
0.999994
0.999993
0.999992
0.99999
0.999985
0.999998
0.999999
0.999999
0.999999
0.999999
0.999998
0.999996
0.999994
0.999993
0.999992
0.99999
0.999983
0.999998
0.999998
0.999998
0.999999
0.999999
0.999998
0.999996
0.999994
0.999992
0.999991
0.999988
0.999977
0.999998
0.999998
0.999998
0.999998
0.999999
0.999998
0.999996
0.999994
0.999992
0.999991
0.999986
0.999969
0.999998
0.999998
0.999998
0.999998
0.999998
0.999998
0.999996
0.999994
0.999992
0.999989
0.999982
0.999967
0.999976
0.999956
0.999943
0.999938
0.999936
0.999934
0.999932
0.999892
0.999744
0.999388
0.998537
0.997294
0.999967
0.999927
0.999885
0.999868
0.99988
0.999897
0.999899
0.99985
0.999696
0.999283
0.997302
0.990386
0.999962
0.999895
0.999796
0.999734
0.999731
0.999778
0.999808
0.999798
0.999675
0.999259
0.996216
0.980807
0.99996
0.999898
0.999784
0.999649
0.999584
0.9996
0.999649
0.999678
0.9996
0.999246
0.996323
0.980606
0.999964
0.999917
0.99982
0.999681
0.999556
0.999496
0.999486
0.999478
0.999366
0.9991
0.996449
0.980346
0.99997
0.999934
0.999849
0.999707
0.99956
0.999468
0.99939
0.999289
0.999066
0.998863
0.996433
0.980081
0.999971
0.999931
0.999833
0.999681
0.999558
0.999473
0.999382
0.999248
0.99907
0.999084
0.997741
0.979812
0.999969
0.99991
0.999785
0.999682
0.99965
0.999659
0.999654
0.99965
0.999673
0.999805
0.999249
0.975394
0.999957
0.999879
0.999798
0.999793
0.999865
0.999927
0.999951
0.999968
0.999979
0.99999
0.999966
0.963885
0.999938
0.999884
0.99987
0.99992
0.999976
0.999992
0.999994
0.999995
0.999996
0.999996
0.99996
0.95086
0.99994
0.999923
0.999942
0.999975
0.999991
0.999993
0.999993
0.999994
0.999992
0.99995
0.999316
0.939033
0.999949
0.999951
0.999965
0.999983
0.999993
0.999993
0.999974
0.999844
0.999324
0.997546
0.991636
0.911369
0.999998
0.999998
0.999998
0.999998
0.999998
0.999998
0.999998
0.999998
0.999998
0.999998
0.999998
0.999998
0.999998
0.999998
0.999998
0.999998
0.999998
0.999998
0.999998
0.999998
0.999998
0.999998
0.999998
0.999998
0.999998
0.999998
0.999998
0.999998
0.999998
0.999998
0.999998
0.999998
0.999998
0.999998
0.999998
0.999998
0.999998
0.999998
0.999998
0.999998
0.999998
0.999998
0.999998
0.999998
0.999998
0.999998
0.999997
0.999996
0.999998
0.999998
0.999998
0.999998
0.999997
0.999997
0.999997
0.999998
0.999998
0.999998
0.999997
0.999995
0.999998
0.999998
0.999998
0.999997
0.999996
0.999996
0.999997
0.999997
0.999998
0.999997
0.999996
0.999995
0.999998
0.999998
0.999998
0.999997
0.999995
0.999994
0.999995
0.999997
0.999997
0.999997
0.999996
0.999995
0.999998
0.999997
0.999998
0.999998
0.999996
0.999994
0.999994
0.999995
0.999996
0.999995
0.999989
0.999987
0.999998
0.999997
0.999998
0.999998
0.999997
0.999995
0.99999
0.999948
0.999825
0.999623
0.999368
0.999076
0.999998
0.999998
0.999997
0.999975
0.999909
0.999687
0.99919
0.99834
0.997364
0.996734
0.99641
0.995906
0.99976
0.999693
0.999001
0.997204
0.994777
0.991752
0.988454
0.985971
0.985169
0.986721
0.989452
0.991022
0.983688
0.964378
0.935892
0.909284
0.901037
0.912118
0.922818
0.934193
0.94378
0.955908
0.969208
0.98035
0.999998
0.999998
0.999998
0.999998
0.999998
0.999998
0.999997
0.999997
0.999997
0.999997
0.999997
0.999997
0.999998
0.999997
0.999997
0.999996
0.999995
0.999994
0.999993
0.999992
0.999992
0.999993
0.999996
0.999997
0.999997
0.999996
0.999995
0.999994
0.999992
0.99999
0.999989
0.999987
0.999985
0.999984
0.999988
0.999997
0.999995
0.999994
0.999992
0.999991
0.999989
0.999987
0.999985
0.999982
0.99998
0.999978
0.999975
0.999988
0.999993
0.999992
0.999991
0.999989
0.999987
0.999985
0.999982
0.99998
0.999978
0.999979
0.99997
0.999913
0.999993
0.999991
0.99999
0.999988
0.999986
0.999983
0.999979
0.999978
0.999976
0.99998
0.99998
0.999637
0.999993
0.999991
0.999989
0.999986
0.999983
0.999981
0.999977
0.999978
0.999974
0.99998
0.999978
0.999198
0.999993
0.999991
0.999986
0.999981
0.999979
0.999979
0.999977
0.999978
0.999974
0.99998
0.999969
0.999021
0.999038
0.999542
0.999964
0.999981
0.999979
0.999979
0.999978
0.999978
0.999975
0.999983
0.999958
0.999022
0.994978
0.994552
0.995061
0.997978
0.999399
0.999812
0.999964
0.999978
0.999976
0.999984
0.999954
0.999021
0.990703
0.989428
0.987556
0.985622
0.986698
0.992387
0.997402
0.999621
0.999954
0.999984
0.999981
0.999174
0.985491
0.985649
0.984697
0.981867
0.976501
0.973123
0.974784
0.984207
0.995303
0.999292
0.999965
0.999925
0.985498
0.978177
0.971464
0.964089
0.950494
0.927472
0.891333
0.843242
0.789862
0.726725
0.664968
0.61913
0.805224
0.801302
0.790034
0.767271
0.726518
0.667313
0.604832
0.543874
0.460302
0.452256
0.452776
0.452129
0.577318
0.574636
0.566945
0.554485
0.55454
0.554476
0.554517
0.560953
0.586308
0.618462
0.651199
0.68213
0.603008
0.609988
0.62465
0.647946
0.673819
0.695884
0.712784
0.748769
0.80442
0.859505
0.903594
0.934143
0.601344
0.610785
0.638975
0.667402
0.726696
0.850396
0.97206
0.999903
0.999989
0.99999
0.999508
0.988669
0.452685
0.45205
0.452641
0.451982
0.452592
0.451935
0.461069
0.610407
0.850149
0.963696
0.992242
0.987066
0.698906
0.70544
0.705722
0.696004
0.630253
0.480007
0.452634
0.452982
0.452634
0.512777
0.591244
0.662603
0.954924
0.968513
0.974166
0.977874
0.977965
0.955429
0.846512
0.681348
0.557827
0.485778
0.469318
0.469272
0.989841
0.989128
0.992764
0.99871
0.999989
0.999994
0.999997
0.999997
0.999962
0.999561
0.998278
0.993582
0.983556
0.980135
0.980874
0.987639
0.995489
0.999239
0.999846
0.998977
0.996364
0.989259
0.97463
0.942187
0.745401
0.840596
0.909029
0.948238
0.976618
0.994149
0.993909
0.978139
0.952946
0.91843
0.876757
0.821674
0.473784
0.518977
0.637927
0.770025
0.766708
0.725016
0.704876
0.753825
0.789218
0.780843
0.762984
0.739451
0.981771
0.956873
0.919032
0.871154
0.819595
0.768178
0.727244
0.718928
0.74538
0.811351
0.901234
0.963845
0.890443
0.824819
0.762015
0.710322
0.675414
0.650233
0.620122
0.580354
0.516518
0.439528
0.437806
0.461529
0.769418
0.729058
0.695197
0.672043
0.658591
0.655512
0.650142
0.637732
0.613638
0.566642
0.50219
0.393253
0.725828
0.726068
0.735058
0.749698
0.766608
0.78294
0.796563
0.803458
0.80545
0.807678
0.783261
0.728653
0.993436
0.999998
0.999998
0.999998
0.999998
0.999998
0.999998
0.999998
0.999998
0.999996
0.99999
0.999979
0.540822
0.625503
0.681348
0.730636
0.801811
0.871891
0.922031
0.961263
0.989236
0.999343
0.99977
0.999607
0.34376
0.343776
0.343749
0.343767
0.347423
0.382414
0.440544
0.52658
0.657967
0.800218
0.881349
0.882334
0.645593
0.560579
0.477669
0.389383
0.342493
0.34269
0.342471
0.342806
0.342662
0.36094
0.434293
0.442231
0.999988
0.999994
0.999994
0.999907
0.999481
0.998289
0.995086
0.98766
0.974292
0.951561
0.913313
0.848549
0.997427
0.991832
0.983664
0.967486
0.94189
0.90925
0.866786
0.813627
0.753928
0.692621
0.628511
0.568518
0.85458
0.805164
0.72037
0.587795
0.47815
0.409029
0.383281
0.392359
0.430974
0.445681
0.451528
0.463386
0.379968
0.291605
0.183502
0.17107
0.175179
0.211172
0.270646
0.34647
0.427275
0.511915
0.590865
0.653572
0.774527
0.698314
0.624074
0.570581
0.548819
0.569081
0.639709
0.719124
0.789934
0.851541
0.903331
0.941448
0.511155
0.447509
0.430933
0.430183
0.430807
0.43008
0.430783
0.44024
0.489022
0.592857
0.710062
0.808279
0.477779
0.496835
0.517871
0.53939
0.553567
0.543417
0.535516
0.527589
0.527964
0.528979
0.546983
0.602404
0.700118
0.735039
0.759964
0.775708
0.776015
0.775985
0.763409
0.731547
0.674017
0.593927
0.569104
0.577361
0.967504
0.979763
0.980494
0.97952
0.97678
0.969495
0.95812
0.952582
0.95829
0.97609
0.995977
0.996644
0.887083
0.9432
0.962407
0.961691
0.957589
0.950256
0.935275
0.91101
0.898878
0.886436
0.859132
0.821892
0.686253
0.784228
0.868462
0.89318
0.888692
0.880281
0.863826
0.831376
0.777954
0.708264
0.622448
0.580034
0.595377
0.641663
0.717345
0.786522
0.804519
0.795801
0.780304
0.75328
0.703325
0.619929
0.60003
0.600809
0.785249
0.790037
0.79987
0.817562
0.831124
0.808638
0.775363
0.829014
0.927195
0.975872
0.991524
0.989054
0.803451
0.802553
0.809148
0.829415
0.845721
0.800454
0.729897
0.778745
0.918674
0.976836
0.991494
0.973976
0.803443
0.802239
0.80985
0.83776
0.869553
0.828043
0.730577
0.761418
0.925079
0.985183
0.988661
0.953716
0.803451
0.802112
0.812055
0.846743
0.888228
0.854069
0.783707
0.840629
0.953106
0.986351
0.985592
0.946368
0.990696
0.990979
0.991001
0.980289
0.97159
0.971982
0.943813
0.885559
0.813189
0.632184
0.469272
0.469053
0.96143
0.972982
0.97848
0.970868
0.974627
0.982283
0.981456
0.97745
0.96727
0.873098
0.504162
0.454246
0.884718
0.962174
0.978235
0.964008
0.973959
0.982271
0.981991
0.983403
0.983379
0.970775
0.733713
0.452838
0.839649
0.966199
0.977722
0.963927
0.97004
0.975377
0.975962
0.981241
0.983376
0.983085
0.9386
0.570619
0.477986
0.480022
0.478875
0.463541
0.45327
0.454011
0.45327
0.645368
0.803974
0.805894
0.762148
0.748002
0.461405
0.452037
0.452825
0.451768
0.646482
0.86195
0.924113
0.900657
0.894938
0.855781
0.780557
0.787803
0.452012
0.452781
0.478891
0.698985
0.931612
0.961263
0.957062
0.943975
0.903412
0.800781
0.741304
0.794229
0.50663
0.565455
0.750579
0.944941
0.973902
0.970559
0.956597
0.928448
0.861045
0.723896
0.735742
0.821398
0.766531
0.797523
0.832627
0.869431
0.909111
0.941663
0.958521
0.9613
0.958339
0.956372
0.943695
0.911776
0.818488
0.854029
0.883604
0.916341
0.951917
0.976858
0.978259
0.978541
0.978325
0.97858
0.978343
0.975251
0.824408
0.868245
0.901872
0.946279
0.975101
0.978244
0.978413
0.978318
0.978536
0.978389
0.97857
0.978341
0.709617
0.858116
0.888011
0.901847
0.912762
0.958201
0.977161
0.978441
0.978338
0.978516
0.978418
0.978567
0.865333
0.827185
0.724688
0.55951
0.407618
0.342315
0.342668
0.342471
0.342806
0.35526
0.294977
0.124632
0.972988
0.969
0.911446
0.812167
0.726201
0.557121
0.417394
0.367765
0.376425
0.340993
0.15962
0.0286428
0.9786
0.978302
0.945811
0.905306
0.910338
0.840143
0.702216
0.571076
0.465007
0.280655
0.0939883
0.0314956
0.978374
0.978581
0.929578
0.911434
0.91176
0.884683
0.814517
0.675245
0.452716
0.221904
0.113073
0.098021
0.00442831
0.00444276
0.0292997
0.247616
0.661275
0.820313
0.825367
0.786587
0.778071
0.817256
0.839317
0.845358
0.00441406
0.0224803
0.231768
0.699423
0.940317
0.948179
0.935777
0.865874
0.864007
0.873718
0.870678
0.849169
0.00439989
0.0752494
0.508543
0.826249
0.947505
0.948068
0.909694
0.866685
0.87412
0.87392
0.837795
0.834593
0.00369637
0.0972331
0.635384
0.886746
0.948068
0.947281
0.882637
0.874522
0.874322
0.848061
0.828897
0.840371
0.851252
0.857864
0.858717
0.799309
0.727756
0.727497
0.723501
0.691026
0.654768
0.628331
0.627589
0.65176
0.842186
0.858146
0.866762
0.827186
0.738987
0.726003
0.720455
0.680121
0.643877
0.627585
0.637538
0.652351
0.834763
0.853526
0.866946
0.849497
0.782314
0.756407
0.761901
0.713966
0.625998
0.587879
0.586292
0.584863
0.874988
0.884087
0.907952
0.89495
0.79183
0.761945
0.790126
0.771711
0.609637
0.514642
0.515618
0.554541
0.680653
0.682371
0.568139
0.54169
0.554989
0.761515
0.830557
0.760704
0.707109
0.707334
0.743923
0.776588
0.593589
0.550587
0.547518
0.621291
0.818361
0.938419
0.958827
0.881204
0.785407
0.767008
0.786085
0.803286
0.532507
0.53293
0.66877
0.872451
0.966261
0.980161
0.97044
0.898441
0.790113
0.767252
0.785447
0.803146
0.583191
0.677825
0.877741
0.971979
0.984855
0.984408
0.975249
0.916095
0.795237
0.767215
0.784882
0.802383
0.802589
0.801883
0.813088
0.852716
0.903623
0.879673
0.845333
0.907654
0.972321
0.986331
0.976559
0.944179
0.80203
0.801752
0.813507
0.85553
0.914619
0.911563
0.837668
0.908425
0.971011
0.968097
0.945532
0.930304
0.801537
0.801091
0.813705
0.856221
0.921948
0.959026
0.837085
0.843319
0.935147
0.898691
0.894437
0.920149
0.801301
0.800909
0.813149
0.85691
0.930032
0.986519
0.902071
0.83128
0.831622
0.83128
0.865298
0.943685
0.801054
0.800922
0.812171
0.858923
0.942117
0.99155
0.988169
0.905812
0.836531
0.844635
0.915384
0.982658
0.800849
0.800955
0.81201
0.867522
0.958919
0.996019
0.999581
0.981461
0.9311
0.947489
0.982579
0.998676
0.800634
0.800863
0.81234
0.884745
0.976797
0.999128
0.999865
0.997931
0.990972
0.995875
0.999122
0.999955
0.800473
0.800906
0.813042
0.907292
0.989478
0.999887
0.999949
0.999765
0.99957
0.999861
0.999964
0.999988
0.800338
0.800763
0.813128
0.932397
0.995759
0.999991
0.999991
0.999969
0.99998
0.999985
0.99999
0.99999
0.800178
0.800304
0.81141
0.955341
0.998305
0.999984
0.999994
0.999994
0.999989
0.999973
0.99999
0.999989
0.800068
0.800142
0.810617
0.97288
0.999181
0.999968
0.999992
0.999993
0.999969
0.999934
0.999978
0.999987
0.800068
0.80019
0.804416
0.983773
0.999729
0.999891
0.999931
0.999925
0.999915
0.999915
0.999915
0.999925
0.840294
0.958064
0.944291
0.954575
0.948185
0.951283
0.966596
0.973892
0.977436
0.978849
0.973585
0.854015
0.839259
0.907538
0.884872
0.869361
0.884618
0.918114
0.96152
0.963954
0.968631
0.973803
0.97373
0.960861
0.840294
0.854961
0.871747
0.846036
0.846223
0.902891
0.962818
0.964295
0.970137
0.975471
0.972918
0.963885
0.839507
0.871697
0.941516
0.88143
0.846036
0.891038
0.962262
0.975587
0.979216
0.980347
0.974901
0.968618
0.840294
0.899843
0.943006
0.942704
0.860528
0.879349
0.946622
0.980729
0.980725
0.980798
0.980419
0.980762
0.896264
0.932228
0.933365
0.941645
0.962089
0.913637
0.933695
0.979364
0.980876
0.980776
0.980895
0.980779
0.950529
0.944764
0.955551
0.988747
0.990064
0.952893
0.926721
0.970556
0.98076
0.980935
0.980809
0.980886
0.971871
0.948564
0.983181
0.99619
0.994481
0.965733
0.924693
0.924875
0.964666
0.98076
0.98096
0.980777
0.976987
0.962437
0.988723
0.996182
0.996187
0.989112
0.942543
0.913651
0.91383
0.947002
0.964743
0.966858
0.976979
0.976409
0.988696
0.996187
0.996184
0.996185
0.990014
0.947761
0.909285
0.894043
0.905036
0.917744
0.976451
0.979561
0.990186
0.996182
0.996184
0.996181
0.996179
0.969691
0.871089
0.621577
0.538956
0.638953
0.950111
0.878165
0.825008
0.78958
0.707559
0.592536
0.503346
0.454161
0.454159
0.454168
0.454168
0.454177
0.787819
0.850346
0.939441
0.97622
0.979126
0.974325
0.955715
0.912942
0.824545
0.696686
0.751384
0.841696
0.943102
0.953724
0.972246
0.980576
0.980405
0.975131
0.954382
0.90033
0.794781
0.69685
0.756542
0.841507
0.960073
0.971536
0.980625
0.980736
0.980269
0.974234
0.95182
0.88962
0.770546
0.696476
0.755392
0.80918
0.974281
0.980702
0.980829
0.980625
0.978981
0.969784
0.945134
0.879623
0.748076
0.69685
0.76034
0.760065
0.980737
0.980839
0.980702
0.98054
0.976082
0.96363
0.935399
0.863408
0.726147
0.696516
0.751099
0.692141
0.980884
0.980737
0.980804
0.979309
0.972738
0.957455
0.92446
0.846733
0.713438
0.698713
0.738837
0.610274
0.980794
0.980856
0.98073
0.978977
0.971498
0.952818
0.912375
0.829075
0.699785
0.711165
0.736866
0.548336
0.980886
0.98073
0.980745
0.980309
0.97331
0.951953
0.905378
0.816288
0.68522
0.719023
0.736689
0.538386
0.962081
0.962303
0.973685
0.977581
0.971172
0.947758
0.89589
0.798249
0.676702
0.733473
0.765835
0.539277
0.931843
0.956676
0.975466
0.977169
0.969082
0.942981
0.895
0.783045
0.676539
0.770845
0.786199
0.556796
0.864335
0.953189
0.968847
0.942308
0.892121
0.831873
0.791458
0.721906
0.731431
0.829016
0.804993
0.569271
0.454177
0.567162
0.567209
0.5673
0.567409
0.567517
0.567626
0.573386
0.743385
0.829554
0.798093
0.592504
0.533547
0.865544
0.882021
0.850686
0.847053
0.858583
0.911494
0.953192
0.967456
0.968116
0.965265
0.964484
0.478672
0.932097
0.949505
0.966421
0.961676
0.917598
0.90643
0.904071
0.89489
0.890168
0.908665
0.9477
0.460221
0.982533
0.992756
0.997557
0.997545
0.98217
0.956681
0.932436
0.865992
0.876628
0.925464
0.958772
0.440475
0.991012
0.998079
0.998108
0.998115
0.997912
0.994461
0.973963
0.858964
0.903629
0.956793
0.959318
0.424099
0.986111
0.998108
0.998118
0.998113
0.998118
0.998113
0.986146
0.833217
0.934348
0.959318
0.959369
0.40433
0.974664
0.998109
0.998108
0.998122
0.998113
0.997915
0.980003
0.795712
0.932678
0.958314
0.953137
0.376479
0.948429
0.997803
0.998122
0.998108
0.997872
0.991115
0.955106
0.748312
0.912873
0.950769
0.929899
0.344756
0.900735
0.997322
0.998104
0.997421
0.985287
0.941411
0.880715
0.744146
0.874194
0.935262
0.898362
0.321813
0.838938
0.995922
0.998105
0.993025
0.953495
0.865143
0.763442
0.744134
0.832569
0.910749
0.881283
0.32183
0.759611
0.991124
0.998014
0.990629
0.951898
0.877623
0.795146
0.744146
0.775624
0.874556
0.876065
0.321849
0.563972
0.939042
0.995187
0.964245
0.83869
0.780067
0.795773
0.79363
0.746706
0.831424
0.8685
0.321868
0.321889
0.403957
0.503694
0.451095
0.400672
0.460378
0.783203
0.877789
0.746719
0.795253
0.857225
0.973925
0.970543
0.89826
0.908041
0.911655
0.873781
0.802339
0.658713
0.415484
0.197497
0.125746
0.0998903
0.969826
0.951117
0.880016
0.899208
0.890184
0.839817
0.759526
0.616793
0.389961
0.223488
0.208964
0.0702701
0.966974
0.92843
0.852734
0.879445
0.844603
0.762538
0.659729
0.522368
0.359603
0.260858
0.333625
0.0702967
0.958745
0.882298
0.808584
0.853594
0.781386
0.648267
0.508909
0.363259
0.305723
0.331542
0.333519
0.0721631
0.93302
0.799513
0.783882
0.81032
0.695072
0.523773
0.346458
0.249857
0.276395
0.4574
0.137844
0.105144
0.875109
0.783882
0.783141
0.719992
0.553841
0.380804
0.249936
0.234645
0.307145
0.45757
0.0289472
0.127881
0.823781
0.786288
0.80879
0.721728
0.517388
0.330367
0.2442
0.226548
0.249765
0.295837
0.022397
0.127886
0.824175
0.818788
0.819975
0.616229
0.359541
0.245287
0.191034
0.132674
0.0842083
0.0537428
0.0224079
0.121997
0.842102
0.837226
0.640439
0.162588
0.10127
0.100864
0.0740464
0.0393456
0.0223793
0.0224082
0.022384
0.0923575
0.858865
0.755935
0.262902
0.038076
0.0380628
0.0373336
0.0306808
0.0242496
0.0224085
0.0223793
0.0378472
0.0830181
0.848256
0.585931
0.0820296
0.0384178
0.0392416
0.0391615
0.0365438
0.0355396
0.0443114
0.0478987
0.093271
0.0833365
0.80328
0.379616
0.0267607
0.0208842
0.0208826
0.0261017
0.0295472
0.0383269
0.0552737
0.0951314
0.0964522
0.0833409
0.00369637
0.108058
0.693302
0.903586
0.948085
0.935284
0.872146
0.865018
0.847678
0.812165
0.829281
0.88062
0.00369637
0.11814
0.720882
0.912223
0.948068
0.921072
0.872109
0.853775
0.822939
0.80979
0.850671
0.901495
0.0040535
0.128248
0.723827
0.91696
0.945228
0.906487
0.872284
0.847716
0.813647
0.809966
0.867353
0.904592
0.0043745
0.137503
0.717631
0.915671
0.936391
0.902729
0.875725
0.846227
0.813652
0.815005
0.877764
0.90463
0.00371574
0.129764
0.700619
0.907592
0.914363
0.901499
0.893226
0.85806
0.823724
0.831701
0.888816
0.905866
0.00312971
0.0891912
0.626869
0.907621
0.907354
0.907322
0.898746
0.870153
0.839448
0.868468
0.905204
0.905156
0.00206785
0.0383063
0.426092
0.871817
0.915762
0.923789
0.905425
0.882419
0.868398
0.900022
0.917351
0.903894
0.00206815
0.00734134
0.143559
0.666648
0.900197
0.923796
0.901185
0.880733
0.872817
0.90694
0.921694
0.907699
0.00206665
0.00206746
0.0142722
0.197342
0.681193
0.888979
0.901218
0.889153
0.897045
0.922413
0.922459
0.917442
0.00206754
0.00206551
0.0020671
0.00952917
0.130006
0.475518
0.666938
0.733181
0.748809
0.760553
0.81798
0.849693
0.0020655
0.00206684
0.00206521
0.00206791
0.00284741
0.00691739
0.0193427
0.0521075
0.0605246
0.0250011
0.0347895
0.135154
0.00207177
0.00207116
0.00206791
0.00206638
0.00206904
0.00206755
0.00206922
0.00206872
0.00207012
0.00206984
0.00207118
0.00276796
0.904216
0.906566
0.90827
0.908156
0.797469
0.753984
0.800368
0.809863
0.637601
0.514053
0.526953
0.609143
0.908156
0.908513
0.908182
0.905709
0.799278
0.754172
0.805116
0.810661
0.722666
0.574042
0.568782
0.620104
0.908745
0.908182
0.909035
0.901115
0.800828
0.756709
0.8038
0.810851
0.800587
0.648312
0.587896
0.620047
0.908156
0.909045
0.908182
0.892473
0.790985
0.744499
0.788564
0.810661
0.806821
0.672393
0.620587
0.673921
0.908944
0.908156
0.908792
0.847791
0.748099
0.718063
0.784163
0.810851
0.77622
0.652715
0.620809
0.732678
0.906051
0.904559
0.858632
0.764111
0.715207
0.715963
0.767904
0.792805
0.71655
0.648187
0.621022
0.700988
0.88623
0.866597
0.828528
0.768423
0.719349
0.709242
0.703766
0.700088
0.680239
0.715334
0.859761
0.587686
0.877828
0.857031
0.828276
0.762444
0.697311
0.658991
0.610237
0.594691
0.680839
0.784142
0.889185
0.525214
0.872712
0.855619
0.824111
0.748227
0.664572
0.597481
0.561366
0.561652
0.695079
0.821943
0.889216
0.46599
0.844848
0.823082
0.789932
0.735259
0.680631
0.618552
0.594816
0.605935
0.75667
0.887435
0.889185
0.407173
0.256666
0.302485
0.295188
0.277593
0.313908
0.391092
0.475639
0.575576
0.7569
0.842579
0.710997
0.293587
0.00493942
0.00496433
0.006664
0.00988012
0.012758
0.0432445
0.119499
0.232386
0.38208
0.480119
0.29835
0.274225
0.583085
0.861402
0.965175
0.985618
0.985619
0.982941
0.97129
0.932918
0.806077
0.767211
0.784418
0.801812
0.604406
0.937696
0.978859
0.984524
0.985618
0.980464
0.968063
0.948784
0.820489
0.767209
0.784377
0.801436
0.581911
0.931571
0.982012
0.982808
0.982477
0.973941
0.965474
0.958149
0.841811
0.767204
0.787063
0.801271
0.511234
0.91715
0.987263
0.987304
0.980393
0.965573
0.96491
0.962397
0.864887
0.767206
0.790248
0.801281
0.497142
0.927373
0.986132
0.975434
0.961423
0.954436
0.962043
0.961201
0.885986
0.767206
0.793568
0.801225
0.496984
0.959806
0.969052
0.952662
0.94863
0.948635
0.96172
0.963766
0.900795
0.767209
0.796492
0.801102
0.550296
0.9624
0.962913
0.954994
0.948657
0.951084
0.96228
0.96375
0.910847
0.767502
0.798705
0.800862
0.725933
0.953175
0.967953
0.962083
0.952998
0.952017
0.958669
0.961533
0.917717
0.770321
0.799307
0.800584
0.886576
0.956156
0.967959
0.967449
0.958545
0.951979
0.954454
0.961104
0.918368
0.773201
0.799611
0.80037
0.907536
0.939084
0.967614
0.967641
0.963608
0.962981
0.962961
0.961791
0.876904
0.777922
0.800046
0.800289
0.761407
0.637184
0.628565
0.666277
0.641285
0.660502
0.879064
0.853094
0.752821
0.785129
0.800187
0.800212
0.318421
0.305642
0.305584
0.305642
0.305584
0.305642
0.312156
0.385392
0.555425
0.794195
0.80012
0.800125
0.800121
0.800088
0.800027
0.800027
0.800035
0.800003
0.800005
0.8
0.800002
0.799999
0.800001
0.799999
0.8
0.799999
0.8
0.8
0.8
0.8
0.8
0.8
0.800186
0.800186
0.800186
0.800047
0.800036
0.800016
0.80001
0.800005
0.800004
0.799999
0.8
0.799999
0.8
0.799999
0.8
0.8
0.8
0.8
0.8
0.8
0.800059
0.799988
0.799988
0.799965
0.799965
0.799965
0.799965
0.799965
0.799965
0.799965
0.799969
0.799969
0.799971
0.799972
0.799976
0.799979
0.799984
0.799989
0.799992
0.799996
0.80008
0.800041
0.800041
0.799997
0.799984
0.799972
0.79997
0.79997
0.79997
0.79997
0.79997
0.79997
0.79997
0.79997
0.799978
0.79998
0.799984
0.799988
0.799993
0.799997
0.800081
0.80008
0.800046
0.800028
0.800005
0.799996
0.79999
0.799991
0.799999
0.799991
0.799996
0.799995
0.8
0.8
0.8
0.8
0.8
0.8
0.8
0.8
0.80008
0.800038
0.800028
0.800028
0.800003
0.800003
0.800005
0.8
0.800002
0.799999
0.800001
0.799999
0.8
0.799999
0.8
0.8
0.8
0.8
0.8
0.8
0.759964
0.86716
0.958632
0.967705
0.968533
0.967705
0.967866
0.963977
0.936161
0.870857
0.816229
0.813748
0.813748
0.82262
0.897266
0.963545
0.97652
0.974703
0.967637
0.944816
0.787375
0.808284
0.871438
0.918989
0.944075
0.964503
0.967705
0.966706
0.949475
0.907991
0.866396
0.84781
0.846457
0.865089
0.932218
0.973975
0.976572
0.976543
0.976568
0.973637
0.842452
0.804682
0.714786
0.623733
0.634489
0.734129
0.861723
0.857433
0.810332
0.766267
0.764756
0.779401
0.833842
0.929182
0.966644
0.969651
0.960733
0.939804
0.901544
0.858986
0.715738
0.580678
0.360253
0.274388
0.274493
0.290287
0.326387
0.381368
0.480497
0.621829
0.699078
0.731929
0.819128
0.91422
0.917091
0.880573
0.768409
0.668524
0.648158
0.618199
0.170575
0.173438
0.202674
0.278146
0.313904
0.374664
0.568369
0.704559
0.706305
0.706891
0.694542
0.682317