/*--------------------------------*- C++ -*----------------------------------*\
| =========                 |                                                 |
| \\      /  F ield         | OpenFOAM: The Open Source CFD Toolbox           |
|  \\    /   O peration     | Version:  2212                                  |
|   \\  /    A nd           | Website:  www.openfoam.com                      |
|    \\/     M anipulation  |                                                 |
\*---------------------------------------------------------------------------*/
FoamFile
{
    version     2.0;
    format      ascii;
    arch        "LSB;label=32;scalar=64";
    class       volScalarField;
    location    "1.5";
    object      alpha.oil;
}
// * * * * * * * * * * * * * * * * * * * * * * * * * * * * * * * * * * * * * //

dimensions      [0 0 0 0 0 0 0];

internalField   nonuniform List<scalar> 
3312
(
9.41851e-07
9.41931e-07
8.79631e-07
7.54727e-07
6.45611e-07
6.39946e-07
6.40258e-07
6.40084e-07
6.40228e-07
6.39844e-07
9.25581e-07
2.55173e-06
9.41096e-07
9.42076e-07
9.15876e-07
8.06876e-07
6.6385e-07
6.39045e-07
6.39946e-07
6.40289e-07
6.40051e-07
7.57704e-07
1.72894e-06
3.3816e-06
9.41022e-07
8.23963e-07
7.37357e-07
6.41824e-07
5.9229e-07
6.38064e-07
6.43729e-07
7.00009e-07
7.42467e-07
9.81231e-07
2.69542e-06
4.65234e-06
9.39764e-07
6.29472e-07
5.71823e-07
5.58834e-07
5.67624e-07
6.47787e-07
8.16476e-07
9.25552e-07
9.29585e-07
1.04941e-06
2.66045e-06
4.80515e-06
8.28182e-07
5.29309e-07
5.1402e-07
5.13837e-07
5.1402e-07
6.14361e-07
9.59441e-07
1.29383e-06
1.23875e-06
1.16426e-06
2.18894e-06
4.39528e-06
7.53106e-07
5.14428e-07
5.12816e-07
5.14018e-07
5.13887e-07
5.3969e-07
9.37154e-07
1.58735e-06
1.70743e-06
1.56857e-06
1.97363e-06
3.58923e-06
6.9785e-07
5.12827e-07
5.13819e-07
5.12977e-07
5.14151e-07
5.13396e-07
8.17402e-07
1.72374e-06
2.34454e-06
2.37941e-06
2.36451e-06
3.43263e-06
6.65043e-07
5.14072e-07
5.1233e-07
5.13396e-07
5.12605e-07
5.14205e-07
7.68549e-07
1.87219e-06
3.06885e-06
3.82644e-06
4.06315e-06
4.33478e-06
6.13406e-07
5.12596e-07
5.13941e-07
5.12186e-07
5.13985e-07
1.48896e-06
1.57612e-05
5.47935e-05
7.68118e-05
1.31888e-05
4.19086e-06
7.04749e-06
5.38995e-07
5.14786e-07
8.56445e-07
1.61207e-05
9.75922e-05
0.000358362
0.000926548
0.00197835
0.00334068
0.00368402
0.00210439
0.000220635
5.39381e-07
2.72954e-05
0.000288372
0.00103374
0.00268217
0.00544669
0.00915509
0.0135683
0.0190069
0.0250874
0.026503
0.0178707
0.000860242
0.00331118
0.0073259
0.0144879
0.0259169
0.0399816
0.0528589
0.0616833
0.0692195
0.0793872
0.0928825
0.10104
2.89243e-06
3.74859e-06
5.38437e-06
7.56558e-06
1.06182e-05
1.42207e-05
1.69434e-05
1.69138e-05
1.12212e-05
6.40916e-06
5.9022e-06
5.9022e-06
4.52402e-06
6.51539e-06
9.66861e-06
1.4537e-05
2.34829e-05
4.1577e-05
7.64881e-05
0.000127197
0.000156397
0.000114089
2.90963e-05
5.90223e-06
6.09523e-06
8.13002e-06
1.13759e-05
1.65694e-05
2.76509e-05
5.46629e-05
0.000124666
0.000311523
0.000728541
0.00107482
0.000644656
6.0059e-05
6.62481e-06
8.98096e-06
1.26923e-05
1.85562e-05
3.04313e-05
5.67868e-05
0.000122396
0.000349891
0.00128941
0.00377929
0.00549858
0.00184256
6.27865e-06
8.47188e-06
1.25662e-05
2.18078e-05
3.8341e-05
5.39053e-05
6.56794e-05
0.000161463
0.000939396
0.00619383
0.025232
0.036377
5.57405e-06
7.56354e-06
1.23456e-05
2.62303e-05
4.18612e-05
3.8826e-05
1.37791e-05
1.54232e-05
0.00020665
0.00540263
0.0651215
0.264125
5.07045e-06
7.23602e-06
1.30346e-05
3.07551e-05
4.16961e-05
2.42799e-05
5.09748e-06
2.26375e-06
1.22162e-06
0.00220927
0.0918092
0.555265
5.7354e-06
8.55516e-06
1.70357e-05
3.03305e-05
3.22335e-05
1.83639e-05
6.8256e-06
2.78928e-06
1.22715e-06
0.000100676
0.0737392
0.597131
8.43576e-06
1.18159e-05
1.98598e-05
2.72462e-05
2.47962e-05
1.71698e-05
8.86327e-06
4.55832e-06
1.48455e-06
8.6174e-05
0.0321712
0.595724
1.12518e-05
1.87035e-05
2.37454e-05
2.57698e-05
2.18847e-05
1.24868e-05
6.6258e-06
4.41547e-06
4.0589e-05
0.000940774
0.0293964
0.581404
0.0040475
9.38495e-05
6.82554e-07
6.82351e-07
6.82614e-07
6.82368e-07
0.000150362
0.000823785
0.00304914
0.0129781
0.10482
0.624453
0.0754327
0.0209383
0.012841
0.0211523
0.0319094
0.0426595
0.0559851
0.0734771
0.100496
0.152664
0.391149
0.686884
1.46865e-06
1.46882e-06
1.46283e-06
1.42493e-06
1.41806e-06
1.4034e-06
1.35859e-06
1.21355e-06
1.14277e-06
1.14385e-06
1.20554e-06
1.93352e-06
1.37878e-06
1.09548e-06
9.53501e-07
9.70182e-07
1.08591e-06
1.17206e-06
1.2051e-06
1.19817e-06
1.26113e-06
1.39232e-06
1.58061e-06
2.30269e-06
8.63233e-07
6.43142e-07
5.82283e-07
5.55521e-07
5.97077e-07
7.22439e-07
8.70589e-07
1.0725e-06
1.46537e-06
1.77468e-06
1.9989e-06
2.38677e-06
7.17633e-07
5.54534e-07
5.55068e-07
5.54667e-07
5.55038e-07
5.53756e-07
6.09055e-07
9.69448e-07
1.82159e-06
2.32487e-06
2.42643e-06
2.42192e-06
6.62719e-07
5.55068e-07
5.54306e-07
5.54675e-07
5.53339e-07
5.54374e-07
5.52643e-07
8.38507e-07
1.95491e-06
3.09432e-06
3.18412e-06
2.84114e-06
6.48623e-07
5.53378e-07
5.54654e-07
5.53408e-07
5.54318e-07
5.52508e-07
5.54699e-07
6.59253e-07
1.70828e-06
3.29618e-06
4.54456e-06
4.49516e-06
6.33637e-07
5.54873e-07
5.53406e-07
5.54613e-07
5.52532e-07
5.54585e-07
5.53661e-07
6.31674e-07
1.19469e-06
2.77208e-06
4.48895e-06
5.47521e-06
6.15213e-07
5.52852e-07
5.54711e-07
5.53353e-07
5.69501e-07
5.74389e-07
5.80181e-07
6.66533e-07
1.13302e-06
2.51519e-06
4.41549e-06
5.91609e-06
5.95422e-07
6.0203e-07
1.22047e-06
1.69989e-06
1.70595e-06
1.56416e-06
1.21245e-06
9.45652e-07
1.18924e-06
1.70403e-06
1.68811e-06
1.67349e-06
5.63988e-07
5.63234e-07
8.60573e-07
1.24546e-06
9.26701e-07
9.28861e-07
9.26641e-07
5.50271e-06
1.75091e-05
8.81542e-05
0.000355135
0.00150248
0.00024203
7.49282e-06
6.46212e-06
3.33239e-05
0.000171246
0.00040396
0.000846731
0.00147872
0.00253429
0.00585875
0.0145789
0.0463872
0.0391241
0.0470691
0.0429879
0.0286214
0.0168813
0.0189851
0.024517
0.0314517
0.0413586
0.0764435
0.171852
0.27956
3.51792e-06
9.62912e-06
2.5977e-05
6.51657e-05
0.000148585
0.000301241
0.00054618
0.000866836
0.00112271
0.001163
0.000630908
0.00047835
4.37294e-06
1.18954e-05
3.69869e-05
0.000112311
0.000295877
0.000601785
0.000945579
0.00120146
0.00146474
0.00190325
0.00300652
0.00344827
4.00834e-06
1.56961e-05
9.08546e-05
0.000391734
0.000989873
0.00129154
0.00131525
0.00110502
0.000955268
0.000913459
0.00287132
0.0195765
3.74329e-06
4.43841e-05
0.000355232
0.0012081
0.00188938
0.0018588
0.000907672
0.00054488
0.000348772
0.000227596
0.000244647
0.0343588
3.01222e-06
3.09674e-05
0.000421416
0.00172598
0.00195242
0.00139067
0.000230615
0.000123977
7.70254e-05
6.48028e-05
0.000661165
0.0357182
3.30736e-06
1.5291e-05
0.000547949
0.00190061
0.00188578
0.000460146
4.67078e-05
2.55751e-05
2.07297e-05
5.72368e-05
0.00137223
0.0350984
4.60282e-06
1.60145e-05
0.000536722
0.00166059
0.00124723
0.000325023
4.92222e-05
1.90209e-05
1.63608e-05
8.99277e-05
0.00280879
0.0368117
6.56874e-06
8.15588e-06
0.000291687
0.00104094
0.000820398
0.000316756
6.65323e-05
2.09702e-05
1.62662e-05
0.000156239
0.0045636
0.0350984
1.6729e-06
1.67359e-06
0.000240733
0.000626669
0.000930334
0.000560665
0.000212945
4.61205e-05
1.63609e-05
0.000238421
0.00537947
0.0292869
0.00643308
0.016424
0.027192
0.0339783
0.0366594
0.0310998
0.0194699
0.00739038
0.00123746
0.000286242
0.00345411
0.017358
0.106836
0.16839
0.204828
0.215624
0.21838
0.206933
0.174732
0.117025
0.0449854
0.00550607
0.00332687
0.0199782
0.350414
0.386355
0.409191
0.430153
0.437989
0.429015
0.393223
0.32468
0.218435
0.10001
0.0202406
0.0319589
4.94218e-05
5.02839e-05
5.04096e-05
5.12256e-05
4.62258e-05
3.86696e-05
3.0158e-05
2.20295e-05
1.58884e-05
1.25901e-05
1.08452e-05
9.5792e-06
4.9458e-05
4.36513e-05
3.8944e-05
2.75728e-05
1.64028e-05
1.04636e-05
7.85982e-06
6.91195e-06
6.98952e-06
7.30715e-06
7.41216e-06
7.4056e-06
4.85992e-05
4.29219e-05
4.27289e-05
2.03573e-05
7.26435e-06
5.9566e-06
5.92338e-06
5.89629e-06
5.86026e-06
5.83228e-06
5.84317e-06
5.82473e-06
4.56461e-05
4.38044e-05
5.69696e-05
1.8135e-05
6.52744e-06
5.97793e-06
6.01991e-06
5.96259e-06
5.9527e-06
5.97344e-06
6.1508e-06
6.2454e-06
3.81881e-05
4.40034e-05
6.89867e-05
3.09493e-05
1.15834e-05
6.59226e-06
6.82317e-06
7.70703e-06
9.64339e-06
1.39755e-05
2.3019e-05
2.30198e-05
3.32454e-05
3.67653e-05
6.93944e-05
5.06802e-05
2.44721e-05
1.79746e-05
2.29294e-05
5.5537e-05
0.000112939
0.000196963
0.000322666
0.000315377
3.22539e-05
3.20254e-05
6.05391e-05
6.03289e-05
4.63832e-05
0.000154489
0.000441222
0.00150381
0.00156439
0.0012562
0.00134413
0.00146867
3.16463e-05
3.22537e-05
4.30189e-05
5.60062e-05
0.0001079
0.00113295
0.00401741
0.00694483
0.00448088
0.00248666
0.0020093
0.00170234
3.20026e-05
3.11938e-05
3.28251e-05
4.25849e-05
0.000252237
0.00337437
0.0107466
0.0105978
0.00395193
0.00206937
0.0016279
0.00141111
3.11941e-05
3.20026e-05
3.10265e-05
3.80039e-05
0.00026923
0.00251654
0.00829278
0.0109016
0.0054363
0.00217108
0.00143178
0.00141862
3.17726e-05
3.10859e-05
3.76848e-05
7.37244e-05
0.000167921
0.000795305
0.00344253
0.00686695
0.00688077
0.0037529
0.00161676
0.00142781
0.000849708
0.00089193
0.00138894
0.00198425
0.00202453
0.00141364
0.00130356
0.00231415
0.00537333
0.00535265
0.00395577
0.00177883
8.02116e-06
6.5029e-06
6.38833e-06
7.4125e-06
8.27758e-06
8.9197e-06
0.000151133
0.00431536
0.0528369
0.0570599
0.0570076
0.0570599
7.16776e-06
6.39259e-06
6.32588e-06
9.74934e-06
1.29389e-05
1.63417e-05
0.000211946
0.00389063
0.0193568
0.0156023
0.00530924
0.0400066
5.81602e-06
5.74796e-06
6.48102e-06
1.23437e-05
1.43979e-05
1.91752e-05
0.000137801
0.00189803
0.00698856
0.00728033
0.00480535
0.0236374
5.73308e-06
5.72898e-06
6.89195e-06
1.16645e-05
1.77259e-05
4.90466e-05
0.000258831
0.0010897
0.00311861
0.00630703
0.00484466
0.0100014
2.34215e-05
2.39444e-05
2.75829e-05
3.91518e-05
7.46602e-05
0.000206751
0.000521283
0.00124968
0.00347429
0.00627103
0.00448558
0.00622674
0.00032626
0.000401017
0.000400462
0.000306701
0.000589021
0.00154788
0.00163926
0.00169744
0.00324897
0.00609672
0.00442583
0.0173311
0.00135624
0.00100751
0.00113459
0.00364329
0.0101045
0.0110929
0.00854846
0.00472351
0.00781786
0.020849
0.0309462
0.233087
0.00138745
0.00138041
0.00352967
0.0108319
0.0142228
0.0139842
0.0119997
0.0122655
0.022782
0.0792698
0.209638
0.290702
0.00139799
0.00160068
0.00459885
0.00939288
0.008203
0.00639723
0.00641112
0.00802919
0.015
0.119364
0.282158
0.290423
0.00140891
0.001478
0.00414001
0.00727243
0.00582846
0.00334844
0.00223537
0.00221296
0.00491473
0.0808094
0.290492
0.290937
0.00141325
0.00157271
0.00441175
0.00739928
0.00568958
0.0025992
0.00118893
0.00101319
0.00166764
0.0245394
0.189054
0.29061
0.0015762
0.0029811
0.00846812
0.00918349
0.00490006
0.00131003
0.000955087
0.000957835
0.000958893
0.00200478
0.0288722
0.226712
8.58028e-07
8.16657e-07
8.16625e-07
8.16095e-07
8.16247e-07
8.1365e-07
8.15393e-07
8.13798e-07
8.15248e-07
8.13074e-07
8.15531e-07
8.15215e-07
9.42529e-07
8.36911e-07
8.16788e-07
8.34268e-07
8.79926e-07
1.02708e-06
1.00932e-06
8.7818e-07
8.1492e-07
8.16133e-07
8.77645e-07
1.20334e-06
9.42642e-07
8.51077e-07
9.48606e-07
1.27829e-06
1.57264e-06
1.88392e-06
1.86929e-06
1.50035e-06
9.88463e-07
8.14601e-07
9.81778e-07
1.65973e-06
9.42567e-07
8.75804e-07
1.45853e-06
2.10005e-06
2.40963e-06
2.56886e-06
3.10646e-06
3.58745e-05
0.000108242
6.54997e-05
7.56438e-06
1.90699e-06
9.26028e-07
1.25139e-06
2.60521e-06
3.00562e-06
3.11612e-06
3.38717e-06
5.22516e-05
0.00076313
0.00171137
0.00174836
0.00084635
0.000102326
9.25384e-07
1.83838e-06
3.27497e-06
3.35098e-06
3.38842e-06
4.91625e-05
0.000754019
0.00284027
0.00482518
0.00579447
0.00523232
0.00246848
9.26211e-07
1.68287e-06
3.04475e-06
1.60598e-05
0.000196623
0.00148602
0.00438945
0.00696956
0.00797434
0.00839308
0.00898773
0.00812406
9.25422e-07
3.15756e-06
4.81555e-05
0.000557937
0.00318688
0.00856838
0.0138804
0.0152941
0.0138448
0.0109231
0.0099564
0.0108376
1.90143e-06
2.999e-05
0.000370163
0.00228329
0.00803333
0.0183078
0.0274268
0.0297134
0.02731
0.0201485
0.0124995
0.011771
1.49794e-05
8.68911e-05
0.000532854
0.00251023
0.00884474
0.022208
0.0391336
0.049924
0.0503118
0.0433248
0.0274163
0.01613
8.41745e-05
0.000319662
0.00114429
0.00342396
0.00890263
0.0215946
0.0452412
0.0702465
0.0818846
0.0811191
0.0643502
0.0350329
0.0013546
0.00346175
0.00727379
0.0131157
0.0220684
0.0374921
0.0592416
0.0894663
0.123446
0.136938
0.126248
0.082489
1.18822e-06
1.56099e-06
1.75446e-06
2.20427e-06
2.9066e-06
3.4914e-06
3.98128e-06
4.35112e-06
3.58388e-06
3.05804e-06
3.0579e-06
3.09059e-06
1.85364e-06
2.68482e-06
3.63496e-06
4.77059e-06
5.81517e-06
6.54268e-06
7.20282e-06
7.86012e-06
7.79888e-06
6.74995e-06
6.34401e-06
3.09065e-06
2.76614e-06
4.58406e-06
7.02972e-06
9.54907e-06
1.14331e-05
1.24962e-05
1.29887e-05
1.32204e-05
1.53885e-05
1.71942e-05
5.06601e-05
0.000448562
4.4382e-06
7.94989e-06
1.17588e-05
1.49454e-05
1.78374e-05
2.11849e-05
2.32532e-05
2.28916e-05
2.68387e-05
4.17042e-05
0.000137062
0.00680398
5.20409e-06
7.69126e-06
1.14713e-05
1.48343e-05
1.90808e-05
2.5495e-05
3.17612e-05
3.75299e-05
4.28747e-05
0.000107841
0.000394708
0.056295
0.000285224
7.73326e-06
7.0344e-06
7.20105e-06
1.00765e-05
1.62745e-05
3.19806e-05
4.91692e-05
8.6322e-05
0.000652771
0.00806571
0.105802
0.00374642
0.00031007
5.31244e-06
3.81793e-06
3.84045e-06
4.98202e-06
1.57465e-05
5.31475e-05
0.000431725
0.00763403
0.0634485
0.105576
0.00982321
0.00405014
0.000315152
5.66326e-06
2.96592e-06
2.31746e-06
6.39846e-06
7.11203e-05
0.00210601
0.0313816
0.106359
0.108792
0.0130925
0.0108271
0.00346636
0.000180631
2.03477e-06
1.74475e-06
4.72263e-05
0.000475293
0.00514477
0.0388824
0.109917
0.107033
0.0164657
0.0162209
0.00931197
0.00139918
4.78305e-05
0.000142306
0.00126454
0.00615183
0.0160224
0.0350164
0.0953441
0.108948
0.0252201
0.0247207
0.017271
0.00497377
0.00312424
0.00683409
0.0169049
0.0373593
0.0469422
0.0421206
0.0510067
0.106172
0.0398094
0.0351574
0.0349271
0.0307556
0.0325148
0.0481639
0.0524039
0.0525513
0.0516374
0.0386714
0.0307799
0.0781458
0.0470871
0.0614353
0.0842068
0.119443
0.164053
0.209457
0.242135
0.251505
0.254072
0.259891
0.275402
0.301772
0.240067
0.314412
0.394485
0.480325
0.557735
0.61478
0.646246
0.651299
0.647463
0.650156
0.657524
0.670703
0.601926
0.653699
0.706882
0.707455
0.707293
0.707459
0.707298
0.70746
0.707294
0.707455
0.707289
0.707449
0.67636
0.66083
0.645018
0.639898
0.635334
0.628676
0.617808
0.599736
0.570943
0.531546
0.479076
0.409716
0.338341
0.392898
0.453933
0.502096
0.535184
0.556563
0.58099
0.62306
0.681025
0.689518
0.688643
0.687666
0.691123
0.691461
0.691505
0.691465
0.691509
0.691467
0.691406
0.691267
0.690956
0.690365
0.673759
0.656941
0.701139
0.689526
0.666377
0.63539
0.594401
0.5432
0.481411
0.402768
0.313811
0.236138
0.191527
0.219713
0.324932
0.240042
0.167981
0.113624
0.0757766
0.0532727
0.0424246
0.0334512
0.0263033
0.0203658
0.0159313
0.0199069
0.565153
0.433387
0.35542
0.302146
0.261278
0.268256
0.291986
0.326406
0.386161
0.452019
0.454641
0.450913
0.632751
0.600881
0.577124
0.575143
0.573072
0.570893
0.568823
0.563568
0.545462
0.502957
0.422979
0.31622
0.283032
0.329427
0.327457
0.337632
0.333237
0.31381
0.282104
0.241297
0.198883
0.160153
0.129861
0.106872
0.0356701
0.0611136
0.0819679
0.081094
0.0732738
0.0624908
0.0565867
0.0567225
0.0616346
0.0612586
0.0614471
0.0656902
0.423018
0.403418
0.409714
0.451361
0.486394
0.487304
0.486177
0.442608
0.342842
0.227374
0.123343
0.0663812
0.221761
0.179483
0.17969
0.21608
0.300885
0.381696
0.403401
0.399137
0.371323
0.300824
0.224868
0.156315
0.0889174
0.0838847
0.0887398
0.108794
0.147137
0.198917
0.253833
0.299549
0.315595
0.314945
0.305934
0.273293
0.0727896
0.0826753
0.0951312
0.110813
0.131259
0.158778
0.191172
0.227395
0.267293
0.304294
0.311126
0.31057
0.0356329
0.0197469
0.0130786
0.0132335
0.014465
0.0123044
0.00496621
0.000809712
0.000835631
0.00546472
0.00668982
0.00589181
0.105247
0.0696125
0.0467008
0.0416463
0.044208
0.0476443
0.0238659
0.00139522
0.000380612
0.000392645
0.00560375
0.0110345
0.220434
0.16642
0.123443
0.0976314
0.086506
0.0846642
0.0593698
0.0145603
0.000907561
0.000380612
0.00125997
0.0064893
0.297968
0.260239
0.206619
0.154946
0.114847
0.0916345
0.074043
0.0403502
0.00970524
0.0042264
0.0114467
0.0416034
0.00622179
0.00905482
0.0120644
0.00961371
0.00358488
0.00103867
0.000957834
0.00127279
0.00231926
0.00494996
0.010948
0.021491
0.0136624
0.0146481
0.013382
0.00869966
0.00463829
0.00518918
0.00781271
0.0127795
0.0209341
0.0325355
0.0504683
0.076484
0.0137746
0.0226489
0.0382443
0.0604219
0.0863105
0.112506
0.139866
0.167647
0.196882
0.229274
0.271033
0.32463
0.139964
0.26531
0.390508
0.461614
0.488928
0.497137
0.497997
0.498397
0.496453
0.496811
0.502798
0.522331
0.0263241
0.0340584
0.0437145
0.0568001
0.0805145
0.131474
0.215636
0.285884
0.31453
0.311665
0.268505
0.182736
0.110788
0.147493
0.183133
0.222416
0.280374
0.366817
0.490292
0.617391
0.656329
0.648236
0.598569
0.495666
0.385604
0.442813
0.488455
0.523743
0.55247
0.580382
0.61079
0.646589
0.672912
0.703448
0.723311
0.724259
0.552007
0.556568
0.556381
0.550686
0.541248
0.52303
0.521596
0.522069
0.533729
0.562302
0.607636
0.673028
0.0827929
0.0369602
0.0458474
0.0522471
0.0526788
0.0523093
0.0524658
0.0511609
0.0463714
0.0370574
0.0310195
0.0369081
0.352
0.198487
0.0808494
0.0476777
0.0467232
0.0468537
0.0463349
0.047356
0.0588539
0.0821418
0.120413
0.174666
0.707126
0.634461
0.524601
0.389345
0.256827
0.23503
0.25208
0.283515
0.331139
0.401985
0.475293
0.543829
0.709475
0.710478
0.710153
0.704403
0.668769
0.633074
0.638953
0.656389
0.700764
0.706338
0.705858
0.691351
0.258882
0.255386
0.245364
0.239301
0.232516
0.220467
0.194246
0.150634
0.0919978
0.0425479
0.0171295
0.0120141
0.182162
0.182095
0.178862
0.177036
0.175099
0.164945
0.136523
0.0908022
0.044349
0.0160456
0.00909069
0.0109439
0.1889
0.187281
0.183198
0.181007
0.177195
0.159809
0.120919
0.0697431
0.0278698
0.00896078
0.00781286
0.0188762
0.191151
0.188556
0.184249
0.18206
0.174902
0.148697
0.0993973
0.0469148
0.0146588
0.00546556
0.00591942
0.0288423
0.00893051
0.00833035
0.00832875
0.010135
0.015981
0.0212641
0.0195525
0.0125952
0.00721225
0.00723728
0.00717548
0.0084831
0.0140013
0.018559
0.0247316
0.0326829
0.0530572
0.0868884
0.0770225
0.0369633
0.0139037
0.00919928
0.00810675
0.0141335
0.0475541
0.0649367
0.0730975
0.0829546
0.122544
0.178092
0.143243
0.057166
0.0126246
0.00949202
0.0105403
0.0388307
0.158119
0.174696
0.137
0.129776
0.178053
0.205018
0.169376
0.0723966
0.0133537
0.00735045
0.012084
0.0916071
0.0208818
0.0500747
0.0920056
0.136123
0.167265
0.179357
0.178167
0.132044
0.0777102
0.0600247
0.0614555
0.095115
0.0427998
0.116951
0.252426
0.388755
0.411061
0.38995
0.278672
0.147621
0.0779221
0.0598198
0.0797161
0.174148
0.130817
0.311758
0.482461
0.526029
0.544403
0.487642
0.277901
0.114437
0.0606632
0.0596171
0.121186
0.247441
0.313068
0.55392
0.629734
0.617406
0.601375
0.406579
0.162812
0.0637378
0.0442895
0.058934
0.17323
0.262504
0.141117
0.178811
0.209765
0.250728
0.285515
0.305938
0.329216
0.330025
0.306281
0.275095
0.266006
0.262197
0.255346
0.251041
0.235314
0.223397
0.205091
0.216946
0.289889
0.311176
0.248987
0.173644
0.170067
0.164803
0.323824
0.232233
0.114872
0.0656682
0.0668665
0.117844
0.241435
0.264918
0.143428
0.0614119
0.0698209
0.076485
0.354782
0.143591
0.0544021
0.0413086
0.0415774
0.0940848
0.246637
0.272872
0.105074
0.0275474
0.0298258
0.0609227
0.24078
0.193365
0.147525
0.110524
0.0760767
0.0513781
0.046765
0.0460422
0.0616825
0.0939143
0.179969
0.487358
0.140808
0.106369
0.0917138
0.091493
0.0872617
0.125486
0.206813
0.299789
0.377535
0.374402
0.674855
0.998784
0.0766147
0.0910123
0.105714
0.142988
0.209858
0.284097
0.35107
0.415138
0.438366
0.467385
0.870237
0.998784
0.093276
0.128455
0.156419
0.172671
0.202863
0.209841
0.255851
0.349969
0.418724
0.646211
0.986168
0.998784
0.973574
0.997102
0.978645
0.776027
0.622358
0.57151
0.512971
0.410064
0.29048
0.208578
0.153766
0.114241
0.998784
0.99709
0.938968
0.501509
0.242191
0.192581
0.172158
0.142093
0.0990677
0.0610843
0.0481961
0.0482602
0.998784
0.99605
0.92028
0.392869
0.0700463
0.0598984
0.0662542
0.0696496
0.0669534
0.0571166
0.050819
0.0584309
0.998784
0.995654
0.915613
0.385418
0.0473051
0.0556817
0.0776771
0.0985184
0.102064
0.0858869
0.0865195
0.0913054
0.0859481
0.0845741
0.123107
0.218991
0.3697
0.50144
0.561714
0.57137
0.587981
0.61445
0.641774
0.655269
0.0481961
0.0591426
0.0829539
0.128745
0.250996
0.447738
0.56376
0.57283
0.569963
0.569906
0.531314
0.446979
0.0687902
0.0864005
0.0863765
0.07854
0.105964
0.261164
0.42005
0.46806
0.411062
0.37887
0.331401
0.305673
0.0903986
0.0893146
0.082601
0.0784811
0.0807206
0.163108
0.275065
0.320371
0.306316
0.295096
0.295316
0.315979
0.626089
0.599395
0.583737
0.675957
0.673944
0.631206
0.49693
0.52441
0.53319
0.429164
0.313451
0.268251
0.347921
0.335701
0.506953
0.607268
0.349564
0.192052
0.185871
0.231823
0.267346
0.251134
0.195272
0.182229
0.305497
0.30628
0.388867
0.414208
0.196293
0.119844
0.141792
0.204458
0.253858
0.260805
0.205435
0.189022
0.36545
0.371868
0.33149
0.264866
0.142708
0.0989951
0.123726
0.197805
0.258614
0.260742
0.207294
0.19154
0.192882
0.189129
0.184935
0.182168
0.168922
0.1305
0.07376
0.027426
0.00677121
0.00361244
0.00400121
0.00611846
0.193964
0.189905
0.186197
0.180897
0.159561
0.10875
0.0495693
0.0140388
0.00298665
0.00216937
0.00161906
0.0010334
0.194891
0.191077
0.186885
0.177917
0.143916
0.0816542
0.0284399
0.00594325
0.00144227
0.00154773
0.00157075
0.00102759
0.195346
0.191905
0.18667
0.171441
0.12278
0.0546051
0.0137037
0.00227617
0.00102078
0.00137585
0.00137648
0.000910457
0.195775
0.193134
0.186638
0.161423
0.095299
0.0296208
0.00505081
0.000941101
0.000837078
0.00140619
0.00140242
0.00086843
0.196349
0.194237
0.185592
0.146988
0.0656258
0.0124182
0.00191694
0.000681158
0.000669488
0.00121538
0.00139109
0.000792162
0.1971
0.195203
0.183435
0.126655
0.0369253
0.00378891
0.00112323
0.000664368
0.000486957
0.000884852
0.00124793
0.000621373
0.198063
0.196282
0.182074
0.100415
0.0161349
0.00140323
0.000949428
0.000710107
0.000335259
0.000515176
0.00082356
0.000379872
0.198727
0.197247
0.181174
0.0702154
0.00664065
0.00103323
0.000908394
0.000488587
0.000245058
0.000240845
0.000317011
0.00017304
0.199134
0.198386
0.18288
0.0456912
0.00386484
0.000971512
0.000973299
0.000443188
0.000184489
0.000105357
8.13076e-05
6.70148e-05
0.199302
0.19908
0.185366
0.0294894
0.00304406
0.000842736
0.00083959
0.000392641
0.000120962
5.91591e-05
5.88586e-05
5.88206e-05
0.199507
0.199324
0.19369
0.0180247
0.0038735
0.00387022
0.00366702
0.00140617
0.000353881
0.00019548
0.000169669
0.000144485
0.226019
0.20225
0.132024
0.126727
0.159822
0.20516
0.170298
0.0748772
0.0149957
0.00723728
0.0119634
0.140614
0.226434
0.0901556
0.0492231
0.0535455
0.0739739
0.139326
0.150587
0.0742167
0.0157375
0.00715372
0.0104099
0.150113
0.29911
0.0467687
0.0216051
0.0215302
0.0242743
0.0618119
0.126936
0.094847
0.0227021
0.00939298
0.0150799
0.128095
0.369787
0.045705
0.0363306
0.0403854
0.0362169
0.057567
0.0887587
0.091502
0.0517396
0.0286063
0.0372809
0.0864179
0.369515
0.0423818
0.049275
0.0593716
0.0581354
0.0618706
0.0620429
0.0604102
0.0638046
0.0633589
0.0612627
0.0393895
0.354417
0.0425313
0.0578284
0.0593911
0.0587879
0.0616957
0.0389239
0.0257885
0.0431353
0.052618
0.0408558
0.0138884
0.347726
0.0671324
0.0594732
0.0594322
0.0593911
0.0503754
0.0183419
0.00698083
0.0118978
0.0193147
0.0123481
0.00547527
0.456327
0.099295
0.058451
0.0593911
0.0413127
0.0189383
0.00537173
0.00414417
0.0040807
0.00441161
0.00408842
0.00415441
0.62085
0.151043
0.0559772
0.0371412
0.0195884
0.00541223
0.00414417
0.00406377
0.00412707
0.00406735
0.00414108
0.00408439
0.738594
0.284972
0.0709745
0.0288333
0.014823
0.00596253
0.00411736
0.00412707
0.00407609
0.004126
0.00408405
0.00413359
0.738601
0.511847
0.146952
0.0500702
0.0349764
0.0125886
0.00414417
0.00409858
0.00412707
0.00499903
0.00413359
0.00410081
0.738609
0.738615
0.73862
0.393486
0.268866
0.295753
0.295672
0.242889
0.187439
0.168467
0.204136
0.273169
0.525136
0.656478
0.656675
0.623563
0.468858
0.186758
0.0637683
0.0400475
0.0386624
0.0684243
0.196629
0.243582
0.593268
0.656675
0.65212
0.558994
0.276039
0.0982294
0.044747
0.0376327
0.0380247
0.0761074
0.191758
0.237676
0.504709
0.592722
0.497237
0.291407
0.139829
0.085452
0.0555605
0.0376963
0.0382923
0.0756496
0.191171
0.237436
0.206319
0.221798
0.160025
0.112271
0.107502
0.100429
0.0735088
0.0439917
0.0389344
0.0750173
0.197344
0.237367
0.0362224
0.0438309
0.0658889
0.102722
0.130437
0.129734
0.0945167
0.0491149
0.0390304
0.0777114
0.213135
0.230063
0.0134055
0.0303023
0.0698315
0.123235
0.162688
0.163128
0.119011
0.0572179
0.0414026
0.0933481
0.213526
0.195016
0.00907426
0.0271505
0.0687309
0.128046
0.176902
0.182052
0.136335
0.0661503
0.0524292
0.114867
0.212427
0.157011
0.00674559
0.0203598
0.0587565
0.122663
0.177718
0.182143
0.136305
0.0720545
0.0652472
0.124095
0.167196
0.136724
0.00569852
0.0162686
0.0508054
0.113969
0.171387
0.174118
0.130013
0.0751563
0.0690848
0.113377
0.136643
0.136683
0.00558132
0.0148146
0.043897
0.0937535
0.133445
0.13567
0.111689
0.0756077
0.0704496
0.12183
0.142298
0.139997
0.00943419
0.0448057
0.161614
0.302312
0.36944
0.377847
0.349061
0.28818
0.296058
0.398368
0.316841
0.295762
0.39977
0.524966
0.53459
0.534561
0.534713
0.534684
0.534824
0.534698
0.53476
0.534573
0.534636
0.488382
0.365414
0.0889084
0.0589104
0.0417737
0.0396364
0.0785493
0.236592
0.325565
0.116202
0.0275332
0.0314524
0.0817082
0.364604
0.0592636
0.0420091
0.0424696
0.0315369
0.0474537
0.190718
0.334777
0.211765
0.034027
0.0434022
0.124413
0.364896
0.0452356
0.0200098
0.0318737
0.0260758
0.0219686
0.101262
0.335385
0.334818
0.0852967
0.0553895
0.120418
0.364604
0.0449667
0.0151526
0.0163131
0.0207569
0.0149884
0.0269218
0.20665
0.336275
0.268527
0.10086
0.107808
0.364613
0.0471804
0.015106
0.0124992
0.0136079
0.0125107
0.0125646
0.0645263
0.310337
0.324679
0.241615
0.126666
0.344462
0.0453308
0.0163626
0.0125224
0.0124387
0.0125224
0.0165808
0.0334915
0.157402
0.325534
0.311042
0.188314
0.33016
0.041355
0.0176566
0.0124057
0.0125224
0.0198231
0.0611032
0.0696657
0.0808179
0.236148
0.291032
0.219134
0.327707
0.0399371
0.0170903
0.0125546
0.0182068
0.0644191
0.0969159
0.0965362
0.0835185
0.092926
0.187733
0.205537
0.35474
0.0469115
0.0181177
0.0128538
0.0291166
0.0727794
0.0965362
0.0968942
0.0628123
0.0473715
0.0702622
0.164616
0.413636
0.070659
0.025976
0.0150352
0.0203578
0.0430541
0.0700425
0.0680011
0.035473
0.0355646
0.035473
0.116991
0.465928
0.130406
0.0553269
0.034662
0.0311618
0.0451825
0.0498884
0.0450483
0.0356413
0.035473
0.0356413
0.0851363
0.466041
0.239346
0.147117
0.125153
0.117112
0.116308
0.0870407
0.0463512
0.0355861
0.0356413
0.0355862
0.0638501
0.14611
0.147115
0.138488
0.111009
0.116054
0.116601
0.171532
0.288424
0.425203
0.782027
0.997325
0.998512
0.147115
0.147125
0.0878581
0.0868857
0.088106
0.121166
0.183286
0.28576
0.493401
0.917176
0.993057
0.966505
0.135513
0.102295
0.0869167
0.087598
0.0918608
0.161341
0.231562
0.329109
0.645366
0.967573
0.981317
0.942118
0.0943547
0.087013
0.0876328
0.0869555
0.0970499
0.174474
0.270184
0.433829
0.804519
0.96729
0.971202
0.95073
0.0873673
0.0876703
0.0869867
0.0876328
0.118169
0.205863
0.334006
0.596099
0.901717
0.959939
0.954978
0.980394
0.100298
0.0871303
0.0876704
0.12421
0.221783
0.372067
0.519157
0.773889
0.920544
0.936862
0.833815
0.980388
0.126478
0.0877087
0.116658
0.363136
0.526275
0.603015
0.642124
0.786397
0.874815
0.868769
0.829744
0.980066
0.151135
0.0993224
0.252152
0.839803
0.843383
0.792276
0.750398
0.769371
0.776518
0.776363
0.829447
0.985629
0.152951
0.130026
0.564023
0.969185
0.955503
0.943401
0.916185
0.862741
0.825232
0.784314
0.928295
0.995246
0.150671
0.175229
0.907749
0.987086
0.985663
0.991275
0.988735
0.971634
0.947035
0.949802
0.985036
0.996873
0.13825
0.275006
0.991413
0.994346
0.995763
0.996953
0.996953
0.996604
0.993173
0.994731
0.996375
0.996955
0.139572
0.545057
0.996725
0.996753
0.996953
0.996953
0.996954
0.996953
0.996954
0.996954
0.996955
0.996954
0.998784
0.996026
0.915537
0.371069
0.0471847
0.0606521
0.0822615
0.103605
0.108355
0.108415
0.108355
0.0988914
0.998784
0.99569
0.909174
0.34461
0.0463282
0.042581
0.0458135
0.0558179
0.0824737
0.104413
0.0936248
0.0719045
0.998783
0.995364
0.90574
0.341863
0.0392033
0.0351135
0.0352287
0.0386523
0.0519479
0.0561737
0.0486851
0.0719746
0.998783
0.995992
0.911422
0.358633
0.0412427
0.0352057
0.0348908
0.0352256
0.0350504
0.0352468
0.0419175
0.0929478
0.998783
0.997851
0.914952
0.375411
0.044698
0.0348759
0.0351747
0.0348334
0.0351732
0.0349917
0.0481626
0.0863891
0.998668
0.998738
0.921414
0.400512
0.0485854
0.0351416
0.0348181
0.0351572
0.0347872
0.0351732
0.0391454
0.0616257
0.998667
0.999182
0.944176
0.473815
0.0584842
0.0348209
0.0351097
0.0347665
0.0351167
0.0347831
0.0351732
0.0545982
0.998771
0.999546
0.976543
0.652372
0.106517
0.0351472
0.034774
0.0351572
0.0347549
0.0358395
0.047905
0.0613356
0.99905
0.999616
0.995381
0.875323
0.368484
0.0807094
0.0398213
0.0467216
0.192448
0.386685
0.300125
0.167834
0.999314
0.999616
0.999498
0.987301
0.865348
0.60749
0.508573
0.669837
0.946081
0.997682
0.946758
0.785533
0.999562
0.999616
0.999615
0.999508
0.999237
0.998767
0.998159
0.998373
0.999615
0.999615
0.999536
0.998849
0.999616
0.999616
0.999615
0.999615
0.999615
0.999615
0.999615
0.999615
0.999615
0.999615
0.999611
0.999519
0.10404
0.103734
0.090334
0.0839613
0.0862626
0.157487
0.25638
0.293897
0.294217
0.294541
0.316199
0.357012
0.120715
0.168968
0.136062
0.105612
0.0995911
0.163769
0.263868
0.294872
0.294541
0.307516
0.379165
0.457874
0.134667
0.185471
0.188129
0.149456
0.125411
0.160514
0.250055
0.288821
0.301286
0.351613
0.447863
0.457317
0.148059
0.170495
0.189876
0.193583
0.162949
0.149046
0.206219
0.27281
0.330538
0.428268
0.536565
0.260457
0.121866
0.158318
0.198058
0.197847
0.160547
0.14818
0.164031
0.289058
0.413858
0.531003
0.536543
0.260457
0.083751
0.125452
0.184419
0.196261
0.157279
0.148188
0.203974
0.390881
0.542598
0.543169
0.270185
0.260457