/*--------------------------------*- C++ -*----------------------------------*\
| =========                 |                                                 |
| \\      /  F ield         | OpenFOAM: The Open Source CFD Toolbox           |
|  \\    /   O peration     | Version:  2212                                  |
|   \\  /    A nd           | Website:  www.openfoam.com                      |
|    \\/     M anipulation  |                                                 |
\*---------------------------------------------------------------------------*/
FoamFile
{
    version     2.0;
    format      ascii;
    arch        "LSB;label=32;scalar=64";
    class       volScalarField;
    location    "1.5";
    object      alpha.oil;
}
// * * * * * * * * * * * * * * * * * * * * * * * * * * * * * * * * * * * * * //

dimensions      [0 0 0 0 0 0 0];

internalField   nonuniform List<scalar> 
3312
(
1.47553e-06
1.39277e-06
1.2452e-06
1.15599e-06
1.15566e-06
1.16295e-06
2.21761e-06
4.23455e-06
5.83816e-06
7.11852e-06
8.14309e-06
9.0969e-06
2.56845e-06
2.47359e-06
2.39528e-06
2.01087e-06
1.47931e-06
1.60918e-06
4.14847e-06
8.1035e-06
1.05816e-05
1.11423e-05
1.12628e-05
1.19372e-05
2.74442e-06
2.60115e-06
2.47893e-06
2.30711e-06
1.98202e-06
2.15361e-06
5.94596e-06
1.04899e-05
1.20219e-05
1.18794e-05
1.1965e-05
1.32395e-05
2.74722e-06
2.07928e-06
1.72934e-06
1.87245e-06
1.92551e-06
2.44372e-06
7.17403e-06
1.1522e-05
1.20253e-05
1.1685e-05
1.265e-05
1.45629e-05
1.7945e-06
9.56582e-07
6.0785e-07
8.42627e-07
1.43406e-06
2.09804e-06
6.70739e-06
1.10131e-05
1.11087e-05
1.04688e-05
1.24374e-05
1.48022e-05
1.45854e-06
6.32e-07
4.07435e-07
4.08598e-07
8.11432e-07
1.4831e-06
5.35664e-06
9.73112e-06
9.33163e-06
8.98803e-06
1.22092e-05
1.49655e-05
1.36669e-06
7.16352e-07
4.65993e-07
3.96608e-07
4.28491e-07
9.24356e-07
3.42489e-06
8.12659e-06
7.42929e-06
5.52527e-06
8.9434e-06
1.37785e-05
1.17115e-06
6.76154e-07
4.56218e-07
3.96456e-07
3.96573e-07
5.06699e-07
1.56122e-06
5.83946e-06
5.97817e-06
5.06833e-06
5.09263e-06
6.82065e-06
7.82836e-07
4.27692e-07
3.9636e-07
3.96273e-07
3.96167e-07
3.96379e-07
1.00395e-06
4.01898e-06
5.55901e-06
5.22483e-06
4.71267e-06
4.42973e-06
1.07488e-06
6.37741e-07
4.44563e-07
4.01088e-07
4.00335e-07
4.3469e-07
5.98418e-07
1.81894e-06
2.7437e-06
2.5791e-06
2.57643e-06
2.5791e-06
1.07968e-06
5.82052e-07
4.03282e-07
4.0243e-07
4.0127e-07
4.02419e-07
1.11947e-05
4.532e-05
6.82935e-05
0.000130775
0.000237116
0.00031255
5.90609e-07
5.86277e-07
0.000142868
0.000535701
0.001336
0.00296527
0.00602256
0.0104463
0.0149011
0.0228882
0.032598
0.0391117
1.02514e-05
1.12437e-05
1.26855e-05
1.64127e-05
2.03906e-05
2.16103e-05
2.11854e-05
2.1174e-05
2.17946e-05
2.32715e-05
3.09234e-05
0.000470076
1.27814e-05
1.37509e-05
1.67087e-05
2.02286e-05
2.32853e-05
2.70956e-05
2.63703e-05
2.73102e-05
3.37545e-05
4.38533e-05
5.33031e-05
0.00046653
1.50334e-05
1.76637e-05
2.16903e-05
2.58627e-05
3.05833e-05
5.20445e-05
8.96638e-05
0.000142085
0.000341106
0.000421795
0.000245039
0.000588767
1.69826e-05
2.01941e-05
2.43876e-05
3.00811e-05
4.39182e-05
0.000103001
0.000309985
0.000915186
0.00206183
0.00177426
0.00089216
0.00110665
1.75369e-05
2.12997e-05
2.68101e-05
3.6409e-05
6.39349e-05
0.000168403
0.00055258
0.0018682
0.00357697
0.00302141
0.00166168
0.00185943
1.77777e-05
2.21409e-05
3.02424e-05
4.87079e-05
9.54384e-05
0.000215875
0.000611059
0.00182218
0.00357167
0.00329629
0.00202305
0.00236648
1.7866e-05
2.22837e-05
3.36774e-05
6.85303e-05
0.000146395
0.000232344
0.000381447
0.000953616
0.00250671
0.00330804
0.00238682
0.00249915
1.19695e-05
2.19609e-05
3.93775e-05
9.52115e-05
0.000194495
0.000217232
0.000184006
0.000239477
0.000909906
0.00299826
0.00304474
0.0027444
4.70371e-06
7.94478e-06
3.31068e-05
0.000127106
0.000198602
0.000198352
0.000130428
0.000108237
0.000126757
0.00043329
0.00254036
0.00351642
2.57643e-06
2.57918e-06
4.94166e-06
4.03412e-05
0.000141952
0.00016965
0.000121762
0.000106963
0.000105764
0.000129099
0.00110195
0.00552699
0.000247323
4.62925e-05
6.47922e-07
6.4796e-07
1.85599e-05
7.81926e-05
0.000118414
0.000105764
0.000104672
0.000123499
0.000351139
0.00937982
0.038868
0.0310876
0.0164129
0.00884398
0.00253958
0.000160309
0.000112849
0.000111764
0.000103558
0.0001325
0.000412544
0.0120385
1.62683e-06
1.62363e-06
1.62886e-06
1.62246e-06
1.63015e-06
1.62461e-06
1.63168e-06
2.1098e-06
2.59197e-06
2.60086e-06
3.21539e-06
4.4159e-06
1.63754e-06
1.6537e-06
1.62387e-06
1.63015e-06
1.62361e-06
1.67629e-06
2.23459e-06
3.01865e-06
3.55043e-06
3.90754e-06
5.27026e-06
8.668e-06
2.08039e-06
2.44377e-06
2.13626e-06
1.62445e-06
1.63015e-06
2.19665e-06
3.2133e-06
3.9699e-06
4.5699e-06
5.66133e-06
9.52368e-06
2.63416e-05
2.65253e-06
3.17316e-06
3.00018e-06
2.07378e-06
1.89455e-06
3.04878e-06
4.29801e-06
4.97951e-06
5.49348e-06
6.79978e-06
1.31125e-05
4.47448e-05
2.82975e-06
3.4306e-06
3.35916e-06
2.72498e-06
2.26462e-06
3.65225e-06
4.82221e-06
5.56457e-06
6.16972e-06
8.35688e-06
2.20959e-05
8.44558e-05
3.0909e-06
3.91225e-06
3.69137e-06
3.3602e-06
2.71784e-06
3.77424e-06
5.30661e-06
6.05073e-06
6.90015e-06
1.11316e-05
4.17469e-05
0.000174126
3.18097e-06
5.22557e-06
5.05014e-06
4.3522e-06
3.41977e-06
3.95454e-06
5.2864e-06
6.37556e-06
7.89704e-06
1.56521e-05
6.36444e-05
0.000196316
3.7025e-06
7.63176e-06
7.14516e-06
6.95801e-06
5.77237e-06
4.88455e-06
5.38629e-06
6.56115e-06
9.32726e-06
2.15375e-05
6.65434e-05
0.000141864
5.28304e-06
7.65346e-06
6.69978e-06
6.4929e-06
5.65419e-06
5.01201e-06
5.35557e-06
6.53256e-06
1.01669e-05
2.48298e-05
5.42706e-05
6.31348e-05
6.76556e-06
6.77991e-06
2.95221e-06
2.15447e-06
3.88341e-06
4.3191e-06
4.99376e-06
6.28138e-06
9.9532e-06
2.27111e-05
4.12827e-05
4.01873e-05
6.79341e-06
3.39044e-06
1.84987e-06
1.85122e-06
1.86567e-06
2.77617e-06
3.96573e-06
5.72904e-06
9.26121e-06
2.04143e-05
3.24736e-05
3.14337e-05
4.33632e-06
3.45145e-06
0.000125286
2.97053e-05
2.16732e-06
2.4089e-06
3.51753e-06
4.93697e-06
7.11928e-06
1.17742e-05
2.62301e-05
0.000184396
8.30179e-06
2.31845e-05
7.81686e-05
0.00023534
0.000517958
0.00081755
0.00098039
0.00098473
0.000674439
0.000324326
0.000136659
7.01323e-05
2.33881e-05
8.68196e-05
0.000297195
0.000716705
0.00115324
0.00133173
0.00132103
0.0011258
0.000792389
0.000524459
0.00030413
0.00019084
9.45399e-05
0.000289402
0.000616519
0.000895781
0.00100651
0.0010259
0.00103055
0.00100576
0.000976479
0.000980632
0.000795121
0.00056026
0.000159637
0.000399084
0.000648088
0.000761459
0.00077597
0.000776435
0.000820866
0.000909614
0.00105999
0.00130873
0.0018579
0.00278157
0.0002548
0.000494352
0.000653982
0.000708273
0.000735435
0.000757154
0.000779539
0.000872672
0.00105687
0.0013851
0.00349086
0.0111269
0.00040038
0.000579757
0.000669104
0.000729423
0.000814095
0.000887215
0.000897405
0.000917858
0.00108368
0.00138552
0.00476899
0.0231738
0.00038077
0.000479953
0.000505936
0.000549834
0.000741494
0.00106977
0.00121316
0.00116764
0.0012375
0.0014402
0.00477607
0.0244244
0.000176552
0.000160197
0.000142944
0.000142469
0.000249788
0.000738182
0.00141552
0.00156426
0.00159635
0.00166634
0.00380113
0.0244428
4.43504e-05
2.44352e-05
1.72358e-05
1.59739e-05
2.24273e-05
0.0002645
0.00118901
0.0017497
0.00190322
0.00197803
0.00375402
0.0187646
3.10476e-05
1.90118e-05
1.3093e-05
1.30068e-05
2.77582e-05
0.00025948
0.000959586
0.00156485
0.00187676
0.00215896
0.00337784
0.00740301
3.05747e-05
6.14036e-05
0.000206644
0.00049133
0.000824936
0.00110624
0.00138406
0.00152195
0.00159259
0.00168027
0.00163907
0.00129825
0.000892785
0.00317809
0.00818444
0.0167449
0.0277688
0.035846
0.0321954
0.017435
0.00469922
0.000636296
0.000324126
0.000333181
1.75829e-06
1.75935e-06
1.65391e-06
1.51164e-06
1.41866e-06
1.32677e-06
1.32124e-06
1.35955e-06
1.47257e-06
1.7273e-06
2.85853e-06
9.0101e-06
1.70106e-06
1.19861e-06
9.60249e-07
9.46865e-07
9.50738e-07
9.4846e-07
1.03469e-06
1.39181e-06
2.00917e-06
2.52532e-06
4.00845e-06
1.13856e-05
1.43937e-06
9.64513e-07
9.4623e-07
9.50029e-07
9.48319e-07
9.50886e-07
9.49096e-07
1.53975e-06
2.66645e-06
3.28549e-06
5.08941e-06
1.27842e-05
1.38789e-06
9.4595e-07
9.4938e-07
9.47601e-07
9.49628e-07
9.49564e-07
1.00962e-06
2.1728e-06
3.40125e-06
4.25356e-06
6.68016e-06
1.52428e-05
1.41679e-06
9.49511e-07
9.45938e-07
9.48146e-07
9.47645e-07
9.49663e-07
1.38288e-06
3.00327e-06
4.24248e-06
5.33945e-06
8.38643e-06
1.6629e-05
1.57625e-06
9.45202e-07
9.49136e-07
9.4661e-07
9.49658e-07
1.03052e-06
2.18387e-06
4.01188e-06
5.29615e-06
6.42705e-06
9.21679e-06
1.57926e-05
1.60746e-06
1.07538e-06
9.4488e-07
9.4948e-07
9.47253e-07
1.36692e-06
3.13539e-06
5.12329e-06
6.34778e-06
7.23758e-06
9.44094e-06
1.47943e-05
1.60818e-06
1.27583e-06
9.97478e-07
9.46186e-07
9.88309e-07
1.84755e-06
3.93443e-06
6.03969e-06
7.28984e-06
7.85143e-06
9.6827e-06
1.49232e-05
1.60746e-06
1.47891e-06
1.31416e-06
9.49368e-07
1.1008e-06
2.16816e-06
4.15797e-06
6.0964e-06
7.47018e-06
8.27893e-06
1.02635e-05
1.67763e-05
1.58577e-06
1.57325e-06
1.69074e-06
1.29964e-06
1.18825e-06
2.42099e-06
4.21642e-06
6.08146e-06
7.60485e-06
8.81251e-06
1.17571e-05
2.3151e-05
1.77517e-06
1.85114e-06
1.85647e-06
1.84955e-06
1.30703e-06
2.31285e-06
4.02997e-06
5.86232e-06
7.51036e-06
9.33028e-06
1.432e-05
3.08321e-05
1.5306e-06
1.52924e-06
1.53039e-06
1.62159e-06
1.66753e-06
2.34251e-06
3.81378e-06
5.57391e-06
7.59603e-06
1.10843e-05
1.84808e-05
3.33118e-05
2.43618e-05
4.36252e-05
5.70994e-05
6.19506e-05
6.4021e-05
6.62139e-05
6.8346e-05
0.000107924
0.000255593
0.000611913
0.00146288
0.00270622
3.25462e-05
7.27513e-05
0.000115346
0.000131525
0.000120385
0.000103362
0.0001005
0.000150427
0.000303877
0.000716635
0.00269826
0.00961445
3.84694e-05
0.000105482
0.000203848
0.000266365
0.000268727
0.000222122
0.000191513
0.000201815
0.00032463
0.000740636
0.00378445
0.019193
4.01025e-05
0.000101977
0.000216444
0.000351189
0.000416035
0.000400477
0.000350829
0.000322443
0.000399563
0.00075374
0.00367657
0.0193936
3.64431e-05
8.3267e-05
0.000180243
0.000319425
0.000444206
0.000504145
0.00051355
0.00052218
0.000634001
0.000900299
0.00355108
0.0196535
2.98794e-05
6.57874e-05
0.000150715
0.000292756
0.000439953
0.000532327
0.00061039
0.000710931
0.000934352
0.00113679
0.00356745
0.0199186
2.85773e-05
6.86313e-05
0.000166664
0.000318511
0.000442131
0.00052697
0.000618163
0.00075186
0.000930014
0.000916312
0.00225913
0.0201883
3.10448e-05
9.00635e-05
0.000215405
0.000318029
0.000350268
0.000340955
0.000345834
0.000350403
0.000326552
0.000194911
0.00075059
0.0246061
4.34985e-05
0.000121335
0.000202159
0.000207102
0.000134943
7.29958e-05
4.90582e-05
3.24125e-05
2.10754e-05
1.00848e-05
3.3804e-05
0.0361149
6.21154e-05
0.0001157
0.000130339
8.01732e-05
2.44613e-05
8.39829e-06
5.94055e-06
5.13579e-06
4.18436e-06
4.13583e-06
4.03656e-05
0.0491402
5.95663e-05
7.7271e-05
5.78683e-05
2.54664e-05
8.68394e-06
6.83842e-06
7.42036e-06
6.19513e-06
8.47412e-06
4.97024e-05
0.000684098
0.0609666
5.12662e-05
4.93214e-05
3.48293e-05
1.67283e-05
6.86291e-06
6.85924e-06
2.61423e-05
0.000155509
0.000676007
0.00245428
0.00836379
0.0886306
2.19404e-06
2.1532e-06
2.14716e-06
2.15144e-06
2.14842e-06
2.15129e-06
2.14803e-06
2.14475e-06
2.13518e-06
2.13522e-06
2.13018e-06
2.13424e-06
2.26215e-06
2.15003e-06
2.15126e-06
2.14675e-06
2.14947e-06
2.14619e-06
2.14786e-06
2.14371e-06
2.13999e-06
2.12985e-06
2.13665e-06
2.12608e-06
2.25707e-06
2.15193e-06
2.14659e-06
2.15037e-06
2.14531e-06
2.14759e-06
2.13932e-06
2.14426e-06
2.13422e-06
2.13976e-06
2.12971e-06
2.44749e-06
2.26045e-06
2.1467e-06
2.15174e-06
2.14472e-06
2.15186e-06
2.24828e-06
2.24308e-06
2.14135e-06
2.14421e-06
2.13532e-06
2.5376e-06
3.51795e-06
2.25947e-06
2.15444e-06
2.14504e-06
2.32396e-06
2.87197e-06
2.9659e-06
2.52483e-06
2.22897e-06
2.16837e-06
2.35657e-06
3.4141e-06
5.06904e-06
2.25907e-06
2.14626e-06
2.15471e-06
2.93774e-06
4.3798e-06
4.41513e-06
3.08785e-06
2.50584e-06
2.3696e-06
2.64471e-06
3.84152e-06
5.37509e-06
2.26014e-06
2.2613e-06
2.15232e-06
2.72233e-06
4.90749e-06
5.68493e-06
4.53142e-06
3.18939e-06
2.78911e-06
2.87961e-06
3.72275e-06
4.98076e-06
2.32786e-06
2.76084e-06
2.24385e-06
2.39203e-06
4.01162e-06
6.0029e-06
6.34657e-06
5.31232e-06
3.92593e-06
5.2806e-06
1.05719e-05
1.32734e-05
2.35239e-06
2.76729e-06
2.46927e-06
2.39046e-06
2.88778e-06
4.78113e-06
9.86779e-06
5.20531e-05
0.000174601
0.000376957
0.00063244
0.000923891
2.35396e-06
2.35549e-06
2.94441e-06
2.48666e-05
9.13522e-05
0.000313394
0.000809912
0.0016598
0.00263568
0.00326609
0.00358953
0.00409424
0.000240246
0.000306855
0.000998542
0.00279551
0.0052235
0.00824761
0.0115455
0.0140292
0.0148313
0.0132789
0.0105482
0.00897789
0.0163117
0.0356219
0.0641077
0.0907155
0.0989629
0.0878816
0.0771816
0.065807
0.0562196
0.0440915
0.0307918
0.0196499
2.13129e-06
2.13711e-06
2.13606e-06
2.14164e-06
2.14153e-06
2.38461e-06
2.93753e-06
3.14851e-06
3.1211e-06
2.86997e-06
2.86758e-06
2.86758e-06
2.36384e-06
2.60012e-06
3.01177e-06
3.78389e-06
4.76043e-06
5.75747e-06
6.71496e-06
7.58675e-06
7.9952e-06
6.66184e-06
3.83113e-06
2.86758e-06
3.11895e-06
3.90025e-06
4.94661e-06
6.33699e-06
7.87686e-06
9.5031e-06
1.13769e-05
1.34641e-05
1.54537e-05
1.6412e-05
1.20877e-05
2.86759e-06
4.83849e-06
6.21918e-06
7.66125e-06
9.24586e-06
1.10075e-05
1.29274e-05
1.5283e-05
1.76325e-05
1.96554e-05
2.1702e-05
2.45454e-05
1.19922e-05
6.58851e-06
7.87101e-06
9.23246e-06
1.07677e-05
1.26504e-05
1.50453e-05
1.82621e-05
2.04254e-05
2.17081e-05
2.05448e-05
3.03104e-05
8.68837e-05
6.96333e-06
8.6078e-06
1.02035e-05
1.18563e-05
1.44757e-05
1.74401e-05
2.1089e-05
2.17764e-05
2.38326e-05
1.96433e-05
2.03026e-05
0.000363452
6.61879e-06
8.56764e-06
1.07716e-05
1.3552e-05
1.71152e-05
1.935e-05
2.30924e-05
2.22672e-05
2.5734e-05
1.95934e-05
2.2075e-05
0.000802015
6.97323e-06
9.36769e-06
1.44302e-05
1.90149e-05
2.099e-05
2.1212e-05
2.31084e-05
2.23485e-05
2.57622e-05
1.95432e-05
3.0896e-05
0.00097881
0.00096241
0.000458401
3.63948e-05
1.90852e-05
2.06187e-05
2.07976e-05
2.16504e-05
2.15881e-05
2.54613e-05
1.74116e-05
4.15304e-05
0.000978262
0.00502226
0.00544777
0.00493886
0.00202244
0.000601386
0.000188253
3.58564e-05
2.21807e-05
2.38395e-05
1.55483e-05
4.59464e-05
0.00097881
0.00929734
0.0105717
0.012444
0.0143779
0.0133022
0.00761313
0.00259776
0.000379163
4.57866e-05
1.56056e-05
1.90119e-05
0.00082622
0.0145088
0.0143508
0.0153034
0.0181333
0.0234986
0.0268766
0.0252164
0.0157935
0.0046975
0.000707736
3.49339e-05
7.45365e-05
0.0145017
0.0218232
0.0285356
0.0359112
0.0495062
0.0725281
0.108667
0.156758
0.210138
0.273275
0.335032
0.38087
0.194776
0.198698
0.209966
0.232729
0.273482
0.332687
0.395168
0.456126
0.539698
0.547744
0.547224
0.547871
0.422682
0.425364
0.433055
0.445515
0.44546
0.445524
0.445483
0.439047
0.413692
0.381538
0.348801
0.31787
0.396992
0.390012
0.37535
0.352054
0.326181
0.304116
0.287216
0.251231
0.19558
0.140495
0.0964055
0.0658574
0.398656
0.389215
0.361025
0.332598
0.273304
0.149604
0.0279396
9.66292e-05
1.11166e-05
1.04628e-05
0.000491626
0.0113314
0.547315
0.54795
0.547359
0.548018
0.547408
0.548065
0.538931
0.389593
0.149851
0.0363038
0.00775804
0.0129341
0.301094
0.29456
0.294278
0.303996
0.369747
0.519993
0.547366
0.547018
0.547366
0.487223
0.408756
0.337397
0.0450759
0.0314866
0.0258343
0.0221259
0.022035
0.044571
0.153488
0.318652
0.442173
0.514222
0.530682
0.530728
0.0101593
0.0108716
0.00723644
0.0012898
1.05293e-05
5.95156e-06
2.61902e-06
2.68121e-06
3.83106e-05
0.000438548
0.00172202
0.00641816
0.0164436
0.0198654
0.0191264
0.0123611
0.0045111
0.000761379
0.000153571
0.00102256
0.00363618
0.0107406
0.0253703
0.0578126
0.254599
0.159404
0.0909706
0.0517621
0.0233824
0.00585116
0.00609088
0.0218607
0.0470542
0.08157
0.123243
0.178326
0.526216
0.481023
0.362073
0.229975
0.233292
0.274984
0.295124
0.246175
0.210782
0.219157
0.237016
0.260549
0.0182293
0.0431266
0.0809676
0.128846
0.180405
0.231822
0.272756
0.281072
0.25462
0.188649
0.098766
0.0361554
0.109557
0.175181
0.237985
0.289678
0.324586
0.349767
0.379878
0.419646
0.483482
0.560472
0.562194
0.538471
0.230582
0.270942
0.304803
0.327957
0.341409
0.344488
0.349858
0.362268
0.386362
0.433358
0.49781
0.606747
0.274172
0.273932
0.264942
0.250302
0.233392
0.21706
0.203437
0.196542
0.19455
0.192322
0.216739
0.271347
0.0065643
1.53036e-06
1.52945e-06
1.53053e-06
1.52934e-06
1.53023e-06
1.52934e-06
1.53027e-06
1.5295e-06
4.11012e-06
1.0293e-05
2.06988e-05
0.459178
0.374497
0.318652
0.269364
0.198189
0.128109
0.0779686
0.0387372
0.0107645
0.000657155
0.000230228
0.00039309
0.65624
0.656224
0.656251
0.656233
0.652577
0.617586
0.559456
0.47342
0.342033
0.199782
0.118651
0.117666
0.354407
0.439421
0.522331
0.610617
0.657507
0.65731
0.657529
0.657194
0.657338
0.63906
0.565707
0.557769
1.16709e-05
6.46135e-06
5.98986e-06
9.26509e-05
0.000519465
0.00171123
0.00491402
0.0123399
0.0257084
0.0484386
0.0866867
0.151451
0.0025726
0.00816791
0.0163358
0.0325136
0.0581097
0.0907498
0.133214
0.186373
0.246072
0.307379
0.371489
0.431482
0.14542
0.194836
0.27963
0.412205
0.52185
0.590971
0.616719
0.607641
0.569026
0.554319
0.548472
0.536614
0.620032
0.708395
0.816498
0.82893
0.824821
0.788828
0.729354
0.65353
0.572725
0.488085
0.409135
0.346428
0.225473
0.301686
0.375926
0.429419
0.451181
0.430919
0.360291
0.280876
0.210066
0.148459
0.0966689
0.0585515
0.488845
0.552491
0.569067
0.569817
0.569193
0.56992
0.569217
0.55976
0.510978
0.407143
0.289938
0.191721
0.522221
0.503165
0.482129
0.46061
0.446433
0.456583
0.464484
0.472411
0.472036
0.471021
0.453017
0.397596
0.299882
0.264961
0.240036
0.224292
0.223985
0.224015
0.236591
0.268453
0.325983
0.406073
0.430896
0.422639
0.0324963
0.0202372
0.0195064
0.0204797
0.0232198
0.0305046
0.0418799
0.0474178
0.0417101
0.0239095
0.0040232
0.00335556
0.112917
0.0567998
0.0375926
0.0383095
0.0424112
0.0497435
0.064725
0.0889901
0.101122
0.113564
0.140868
0.178108
0.313747
0.215772
0.131538
0.10682
0.111308
0.119719
0.136174
0.168624
0.222046
0.291736
0.377552
0.419966
0.404623
0.358337
0.282655
0.213478
0.195481
0.204199
0.219696
0.24672
0.296675
0.380071
0.39997
0.399191
0.214751
0.209963
0.20013
0.182438
0.168876
0.191362
0.224637
0.170986
0.0728046
0.024128
0.00847637
0.0109461
0.196549
0.197447
0.190852
0.170585
0.154279
0.199546
0.270103
0.221255
0.081326
0.0231642
0.00850616
0.0260241
0.196557
0.197761
0.19015
0.16224
0.130447
0.171957
0.269423
0.238582
0.0749214
0.0148166
0.0113393
0.0462843
0.196549
0.197888
0.187945
0.153257
0.111772
0.145931
0.216293
0.159371
0.0468943
0.0136485
0.0144082
0.0536323
0.00930422
0.00902136
0.00899914
0.0197109
0.0284096
0.0280176
0.0561866
0.114441
0.186811
0.367816
0.530728
0.530947
0.0385702
0.0270178
0.0215197
0.029132
0.0253726
0.0177167
0.0185438
0.0225499
0.0327302
0.126902
0.495838
0.545754
0.115282
0.0378259
0.0217649
0.0359922
0.0260407
0.0177289
0.0180089
0.0165974
0.0166206
0.0292248
0.266287
0.547162
0.160351
0.0338013
0.0222781
0.0360731
0.0299599
0.0246232
0.024038
0.0187585
0.0166243
0.0169155
0.0614003
0.429381
0.522014
0.519978
0.521125
0.536459
0.54673
0.545989
0.54673
0.354632
0.196026
0.194106
0.237852
0.251998
0.538595
0.547963
0.547175
0.548232
0.353518
0.13805
0.0758874
0.0993435
0.105062
0.144219
0.219443
0.212197
0.547988
0.547219
0.521109
0.301015
0.0683875
0.038737
0.0429377
0.0560245
0.0965879
0.199219
0.258696
0.205771
0.49337
0.434545
0.249421
0.0550588
0.0260979
0.0294415
0.0434027
0.0715522
0.138955
0.276104
0.264258
0.178602
0.233469
0.202477
0.167373
0.130569
0.0908892
0.0583369
0.0414791
0.0387002
0.041661
0.0436279
0.0563051
0.088224
0.181512
0.145971
0.116396
0.0836595
0.0480829
0.0231417
0.0217413
0.0214593
0.0216754
0.0214198
0.0216574
0.0247489
0.175592
0.131755
0.0981281
0.0537207
0.0248992
0.0217562
0.0215869
0.0216821
0.0214637
0.0216113
0.0214304
0.0216593
0.290383
0.141884
0.111989
0.0981529
0.0872381
0.0417986
0.022839
0.0215591
0.021662
0.0214844
0.0215822
0.0214334
0.134667
0.172815
0.275312
0.44049
0.592382
0.657685
0.657332
0.657529
0.657194
0.64474
0.705023
0.875368
0.0270121
0.0309999
0.0885538
0.187833
0.273799
0.442879
0.582606
0.632235
0.623575
0.659007
0.84038
0.971357
0.0213996
0.0216976
0.0541891
0.0946938
0.0896616
0.159857
0.297784
0.428924
0.534993
0.719345
0.906012
0.968504
0.0216261
0.0214191
0.0704224
0.0885656
0.0882404
0.115317
0.185483
0.324755
0.547284
0.778096
0.886927
0.901979
0.995572
0.995557
0.9707
0.752384
0.338725
0.179687
0.174633
0.213413
0.221929
0.182744
0.160683
0.154642
0.995586
0.97752
0.768232
0.300577
0.0596828
0.0518211
0.064223
0.134126
0.135993
0.126282
0.129322
0.150831
0.9956
0.924751
0.491457
0.173751
0.0524949
0.0519319
0.0903057
0.133315
0.12588
0.12608
0.162205
0.165407
0.996304
0.902767
0.364616
0.113254
0.0519319
0.0527187
0.117363
0.125478
0.125678
0.151939
0.171103
0.159629
0.148748
0.142136
0.141283
0.200691
0.272244
0.272503
0.276499
0.308974
0.345232
0.371669
0.372411
0.34824
0.157814
0.141854
0.133238
0.172814
0.261013
0.273997
0.279545
0.319879
0.356123
0.372415
0.362462
0.347649
0.165237
0.146474
0.133054
0.150503
0.217686
0.243593
0.238099
0.286034
0.374002
0.412121
0.413708
0.415137
0.125012
0.115913
0.0920483
0.10505
0.20817
0.238055
0.209874
0.228289
0.390363
0.485358
0.484382
0.445459
0.319347
0.317629
0.431861
0.45831
0.445011
0.238485
0.169443
0.239296
0.292891
0.292666
0.256077
0.223412
0.406411
0.449413
0.452482
0.378709
0.181639
0.0615814
0.0411734
0.118796
0.214593
0.232992
0.213915
0.196714
0.467493
0.46707
0.33123
0.127549
0.033739
0.0198386
0.0295602
0.101559
0.209887
0.232748
0.214553
0.196854
0.416809
0.322175
0.122259
0.028021
0.0151453
0.015592
0.0247511
0.0839054
0.204763
0.232785
0.215118
0.197617
0.197411
0.198117
0.186912
0.147284
0.0963771
0.120327
0.154667
0.0923465
0.0276793
0.0136687
0.0234415
0.0558209
0.19797
0.198248
0.186493
0.14447
0.0853811
0.0884374
0.162332
0.0915746
0.0289893
0.0319026
0.0544677
0.0696964
0.198463
0.198909
0.186295
0.143779
0.0780523
0.0409743
0.162915
0.156681
0.0648535
0.101309
0.105563
0.0798507
0.198699
0.199091
0.186851
0.14309
0.0699683
0.013481
0.0979288
0.16872
0.168378
0.16872
0.134702
0.0563155
0.198946
0.199078
0.187829
0.141077
0.0578833
0.00845014
0.0118313
0.0941882
0.163469
0.155365
0.0846163
0.0173418
0.199151
0.199045
0.18799
0.132478
0.0410808
0.00398067
0.000419164
0.0185391
0.0688999
0.0525105
0.0174215
0.00132387
0.199366
0.199137
0.18766
0.115255
0.0232035
0.000871819
0.000135337
0.00206922
0.00902767
0.00412483
0.000877979
4.53713e-05
0.199527
0.199094
0.186958
0.0927077
0.0105219
0.000113368
5.10702e-05
0.000234599
0.000430144
0.000138546
3.57203e-05
1.21741e-05
0.199662
0.199237
0.186872
0.0676034
0.00424096
9.06565e-06
8.51785e-06
3.11717e-05
2.04412e-05
1.47824e-05
1.00049e-05
9.8955e-06
0.199822
0.199696
0.18859
0.0446587
0.00169505
1.60648e-05
5.77866e-06
5.87169e-06
1.13764e-05
2.66059e-05
1.03717e-05
1.08457e-05
0.199932
0.199858
0.189383
0.0271198
0.000818759
3.19874e-05
7.50808e-06
7.25402e-06
3.11892e-05
6.61956e-05
2.18238e-05
1.31374e-05
0.199932
0.19981
0.195584
0.016227
0.000271259
0.000109412
6.91719e-05
7.46227e-05
8.51686e-05
8.51673e-05
8.51686e-05
7.48242e-05
0.159706
0.0419357
0.0557093
0.0454251
0.0518153
0.0487166
0.0334036
0.0261079
0.0225636
0.0211506
0.0264146
0.145985
0.160741
0.0924621
0.115128
0.130639
0.115382
0.0818856
0.0384797
0.0360455
0.0313688
0.0261975
0.0262698
0.0391388
0.159706
0.145039
0.128253
0.153964
0.153777
0.0971087
0.0371821
0.0357047
0.0298631
0.0245286
0.0270823
0.0361151
0.160493
0.128303
0.0584842
0.11857
0.153964
0.108962
0.0377383
0.0244129
0.0207836
0.0196532
0.0250988
0.0313816
0.159706
0.100157
0.056994
0.0572962
0.139472
0.120651
0.0533776
0.019271
0.0192748
0.0192025
0.0195811
0.0192381
0.103736
0.0677724
0.0666354
0.0583551
0.0379107
0.0863628
0.0663048
0.0206356
0.0191243
0.0192237
0.0191051
0.0192209
0.0494707
0.0552363
0.0444495
0.0112527
0.00993582
0.0471069
0.0732787
0.0294438
0.0192395
0.0190645
0.0191909
0.0191141
0.0281287
0.0514357
0.0168192
0.00381013
0.00551863
0.0342666
0.0753069
0.0751246
0.035334
0.0192395
0.0190402
0.0192232
0.0230134
0.0375633
0.0112765
0.00381812
0.00381291
0.0108883
0.0574566
0.0863489
0.0861698
0.0529978
0.0352566
0.0331418
0.0230215
0.0235914
0.0113041
0.00381291
0.00381585
0.00381548
0.00998642
0.0522391
0.0907146
0.105957
0.0949638
0.0822562
0.0235488
0.0204389
0.0098138
0.00381812
0.00381583
0.00381864
0.00382148
0.0303088
0.128911
0.378423
0.461044
0.361047
0.0498887
0.121835
0.174992
0.21042
0.292441
0.407464
0.496654
0.545839
0.545841
0.545832
0.545832
0.545823
0.212181
0.149654
0.0605588
0.0237805
0.0208743
0.0256748
0.0442849
0.0870576
0.175455
0.303314
0.248616
0.158304
0.0568981
0.0462761
0.0277539
0.0194238
0.0195947
0.0248689
0.0456181
0.0996697
0.205219
0.30315
0.243458
0.158493
0.0399273
0.028464
0.0193746
0.0192641
0.0197312
0.0257659
0.0481796
0.11038
0.229454
0.303524
0.244608
0.19082
0.0257195
0.0192975
0.0191715
0.0193746
0.0210189
0.0302165
0.0548657
0.120377
0.251924
0.30315
0.23966
0.239935
0.0192631
0.0191613
0.0192975
0.0194604
0.0239177
0.0363702
0.0646008
0.136592
0.273853
0.303484
0.248901
0.307859
0.0191161
0.0192631
0.0191959
0.0206914
0.0272622
0.0425446
0.0755401
0.153267
0.286562
0.301287
0.261163
0.389726
0.0192061
0.0191437
0.0192703
0.0210226
0.0285021
0.0471819
0.0876254
0.170925
0.300215
0.288835
0.263134
0.451664
0.0191141
0.0192703
0.0192554
0.0196909
0.0266905
0.0480467
0.0946223
0.183712
0.31478
0.280977
0.263311
0.461614
0.0379195
0.0376973
0.0263154
0.0224195
0.0288278
0.0522418
0.10411
0.201751
0.323298
0.266527
0.234165
0.460723
0.0681574
0.0433243
0.0245344
0.0228315
0.0309181
0.0570195
0.105
0.216955
0.323461
0.229155
0.213801
0.443204
0.135665
0.0468108
0.0311528
0.0576923
0.107879
0.168127
0.208542
0.278094
0.268569
0.170984
0.195007
0.430729
0.545823
0.432838
0.432791
0.4327
0.432591
0.432483
0.432374
0.426614
0.256615
0.170446
0.201907
0.407496
0.466453
0.134456
0.117979
0.149314
0.152947
0.141417
0.0885055
0.0468077
0.0325442
0.0318844
0.0347354
0.0355156
0.521328
0.0679025
0.0504952
0.0335787
0.0383243
0.0824019
0.09357
0.095929
0.10511
0.109832
0.0913353
0.0523004
0.539779
0.0174671
0.00724403
0.00244283
0.00245512
0.0178296
0.0433186
0.0675639
0.134008
0.123372
0.0745363
0.041228
0.559525
0.0089884
0.00192065
0.00189169
0.00188509
0.00208781
0.00553913
0.0260374
0.141036
0.0963714
0.0432074
0.0406817
0.575901
0.013889
0.00189169
0.00188181
0.00188735
0.001882
0.00188735
0.0138543
0.166783
0.0656522
0.0406817
0.0406308
0.59567
0.0253361
0.00189126
0.00189168
0.00187793
0.00188735
0.00208521
0.0199974
0.204288
0.0673224
0.0416864
0.0468625
0.623521
0.0515714
0.00219744
0.00187833
0.00189159
0.00212799
0.00888528
0.0448942
0.251688
0.0871269
0.0492312
0.0701013
0.655244
0.0992651
0.00267808
0.00189593
0.00257941
0.0147132
0.0585887
0.119285
0.255854
0.125806
0.0647384
0.101638
0.678187
0.161062
0.00407829
0.00189495
0.00697455
0.0465053
0.134857
0.236558
0.255866
0.167431
0.0892507
0.118717
0.67817
0.240389
0.00887597
0.00198603
0.00937068
0.0481023
0.122377
0.204854
0.255854
0.224376
0.125444
0.123935
0.678151
0.436028
0.0609584
0.00481338
0.0357547
0.16131
0.219933
0.204227
0.20637
0.253294
0.168576
0.1315
0.678132
0.678111
0.596043
0.496306
0.548905
0.599328
0.539622
0.216797
0.122211
0.253281
0.204747
0.142775
0.0260754
0.0294567
0.10174
0.0919589
0.0883454
0.126219
0.197661
0.341287
0.584516
0.802503
0.874254
0.90011
0.0301739
0.0488827
0.119984
0.100792
0.109816
0.160183
0.240474
0.383207
0.610039
0.776512
0.791036
0.92973
0.0330256
0.0715698
0.147266
0.120555
0.155397
0.237462
0.340271
0.477632
0.640397
0.739142
0.666375
0.929703
0.0412545
0.117702
0.191416
0.146406
0.218614
0.351733
0.491091
0.636741
0.694277
0.668458
0.666481
0.927837
0.0669804
0.200487
0.216118
0.18968
0.304928
0.476227
0.653542
0.750143
0.723605
0.5426
0.862156
0.894856
0.124891
0.216118
0.216859
0.280008
0.446159
0.619196
0.750064
0.765355
0.692855
0.54243
0.971053
0.872119
0.176219
0.213712
0.19121
0.278272
0.482612
0.669633
0.7558
0.773452
0.750235
0.704163
0.977603
0.872114
0.175825
0.181212
0.180025
0.383771
0.640459
0.754713
0.808966
0.867326
0.915792
0.946257
0.977592
0.878003
0.157898
0.162774
0.359561
0.837412
0.89873
0.899136
0.925954
0.960654
0.977621
0.977592
0.977616
0.907643
0.141135
0.244065
0.737098
0.961924
0.961937
0.962666
0.969319
0.97575
0.977592
0.977621
0.962153
0.916982
0.151744
0.414069
0.91797
0.961582
0.960758
0.960839
0.963456
0.96446
0.955689
0.952101
0.906729
0.916664
0.19672
0.620384
0.973239
0.979116
0.979117
0.973898
0.970453
0.961673
0.944726
0.904869
0.903548
0.916659
0.996304
0.891942
0.306698
0.0964141
0.0519147
0.0647155
0.127854
0.134982
0.152322
0.187835
0.170719
0.11938
0.996304
0.88186
0.279118
0.0877766
0.0519319
0.0789285
0.127891
0.146225
0.177061
0.19021
0.149329
0.0985052
0.995946
0.871752
0.276173
0.0830395
0.0547715
0.0935134
0.127716
0.152284
0.186353
0.190034
0.132647
0.0954079
0.995625
0.862497
0.282369
0.0843286
0.0636093
0.0972707
0.124275
0.153773
0.186348
0.184995
0.122236
0.0953697
0.996284
0.870236
0.299381
0.092408
0.0856368
0.0985014
0.106774
0.14194
0.176276
0.168299
0.111184
0.0941341
0.99687
0.910809
0.373131
0.0923791
0.0926456
0.0926776
0.101254
0.129847
0.160552
0.131532
0.0947964
0.0948441
0.997932
0.961694
0.573908
0.128183
0.0842379
0.0762109
0.0945746
0.117581
0.131602
0.0999782
0.0826489
0.0961063
0.997932
0.992659
0.856441
0.333352
0.0998034
0.0762042
0.098815
0.119267
0.127183
0.0930599
0.078306
0.0923013
0.997933
0.997933
0.985728
0.802658
0.318807
0.111021
0.0987819
0.110847
0.102955
0.0775872
0.0775407
0.0825578
0.997932
0.997934
0.997933
0.990471
0.869994
0.524482
0.333062
0.266819
0.251191
0.239447
0.18202
0.150307
0.997934
0.997933
0.997935
0.997932
0.997153
0.993083
0.980657
0.947893
0.939475
0.974999
0.96521
0.864846
0.997928
0.997929
0.997932
0.997934
0.997931
0.997932
0.997931
0.997931
0.99793
0.99793
0.997929
0.997232
0.0957839
0.0934336
0.0917303
0.0918444
0.202531
0.246016
0.199632
0.190137
0.362399
0.485947
0.473047
0.390857
0.0918444
0.0914869
0.0918182
0.0942914
0.200722
0.245828
0.194884
0.189339
0.277334
0.425958
0.431218
0.379896
0.0912552
0.0918182