/*--------------------------------*- C++ -*----------------------------------*\
| =========                 |                                                 |
| \\      /  F ield         | OpenFOAM: The Open Source CFD Toolbox           |
|  \\    /   O peration     | Version:  2212                                  |
|   \\  /    A nd           | Website:  www.openfoam.com                      |
|    \\/     M anipulation  |                                                 |
\*---------------------------------------------------------------------------*/
FoamFile
{
    version     2.0;
    format      ascii;
    arch        "LSB;label=32;scalar=64";
    class       volScalarField;
    location    "1.5";
    object      alphas;
}
// * * * * * * * * * * * * * * * * * * * * * * * * * * * * * * * * * * * * * //

dimensions      [0 0 0 0 0 0 0];

internalField   nonuniform List<scalar> 
3312
(
0.999999
0.999999
0.999999
0.999999
0.999999
0.999999
0.999999
0.999999
0.999999
0.999999
0.999999
0.999997
0.999999
0.999999
0.999999
0.999999
0.999999
0.999999
0.999999
0.999999
0.999999
0.999999
0.999998
0.999997
0.999999
0.999999
0.999999
0.999999
0.999999
0.999999
0.999999
0.999999
0.999999
0.999999
0.999997
0.999995
0.999999
0.999999
0.999999
0.999999
0.999999
0.999999
0.999999
0.999999
0.999999
0.999999
0.999997
0.999995
0.999999
0.999999
0.999999
0.999999
0.999999
0.999999
0.999999
0.999999
0.999999
0.999999
0.999998
0.999996
0.999999
0.999999
0.999999
0.999999
0.999999
0.999999
0.999999
0.999998
0.999998
0.999998
0.999998
0.999996
0.999999
0.999999
0.999999
0.999999
0.999999
0.999999
0.999999
0.999998
0.999998
0.999998
0.999998
0.999997
0.999999
0.999999
0.999999
0.999999
0.999999
0.999999
0.999999
0.999998
0.999997
0.999996
0.999996
0.999996
0.999999
0.999999
0.999999
0.999999
0.999999
0.999999
0.999984
0.999945
0.999923
0.999987
0.999996
0.999993
0.999999
0.999999
0.999999
0.999984
0.999902
0.999642
0.999073
0.998022
0.996659
0.996316
0.997896
0.999779
0.999999
0.999973
0.999712
0.998966
0.997318
0.994553
0.990845
0.986432
0.980993
0.974913
0.973497
0.982129
0.99914
0.996689
0.992674
0.985512
0.974083
0.960018
0.947141
0.938317
0.930781
0.920613
0.907118
0.89896
0.999997
0.999996
0.999995
0.999992
0.999989
0.999986
0.999983
0.999983
0.999989
0.999994
0.999994
0.999994
0.999995
0.999993
0.99999
0.999985
0.999977
0.999958
0.999924
0.999873
0.999844
0.999886
0.999971
0.999994
0.999994
0.999992
0.999989
0.999983
0.999972
0.999945
0.999875
0.999688
0.999271
0.998925
0.999355
0.99994
0.999993
0.999991
0.999987
0.999981
0.99997
0.999943
0.999878
0.99965
0.998711
0.996221
0.994501
0.998157
0.999994
0.999992
0.999987
0.999978
0.999962
0.999946
0.999934
0.999839
0.999061
0.993806
0.974768
0.963623
0.999994
0.999992
0.999988
0.999974
0.999958
0.999961
0.999986
0.999985
0.999793
0.994597
0.934878
0.735875
0.999995
0.999993
0.999987
0.999969
0.999958
0.999976
0.999995
0.999998
0.999999
0.997791
0.908191
0.444735
0.999994
0.999991
0.999983
0.99997
0.999968
0.999982
0.999993
0.999997
0.999999
0.999899
0.926261
0.402869
0.999992
0.999988
0.99998
0.999973
0.999975
0.999983
0.999991
0.999995
0.999999
0.999914
0.967829
0.404276
0.999989
0.999981
0.999976
0.999974
0.999978
0.999988
0.999993
0.999996
0.999959
0.999059
0.970604
0.418596
0.995953
0.999906
0.999999
0.999999
0.999999
0.999999
0.99985
0.999176
0.996951
0.987022
0.89518
0.375547
0.924567
0.979062
0.987159
0.978848
0.968091
0.95734
0.944015
0.926523
0.899504
0.847336
0.608851
0.313116
0.999999
0.999999
0.999999
0.999999
0.999999
0.999999
0.999999
0.999999
0.999999
0.999999
0.999999
0.999998
0.999999
0.999999
0.999999
0.999999
0.999999
0.999999
0.999999
0.999999
0.999999
0.999999
0.999998
0.999998
0.999999
0.999999
0.999999
0.999999
0.999999
0.999999
0.999999
0.999999
0.999999
0.999998
0.999998
0.999998
0.999999
0.999999
0.999999
0.999999
0.999999
0.999999
0.999999
0.999999
0.999998
0.999998
0.999998
0.999998
0.999999
0.999999
0.999999
0.999999
0.999999
0.999999
0.999999
0.999999
0.999998
0.999997
0.999997
0.999997
0.999999
0.999999
0.999999
0.999999
0.999999
0.999999
0.999999
0.999999
0.999998
0.999997
0.999995
0.999996
0.999999
0.999999
0.999999
0.999999
0.999999
0.999999
0.999999
0.999999
0.999999
0.999997
0.999996
0.999995
0.999999
0.999999
0.999999
0.999999
0.999999
0.999999
0.999999
0.999999
0.999999
0.999997
0.999996
0.999994
0.999999
0.999999
0.999999
0.999998
0.999998
0.999998
0.999999
0.999999
0.999999
0.999998
0.999998
0.999998
0.999999
0.999999
0.999999
0.999999
0.999999
0.999999
0.999999
0.999994
0.999982
0.999912
0.999645
0.998498
0.999758
0.999993
0.999994
0.999967
0.999829
0.999596
0.999153
0.998521
0.997466
0.994141
0.985421
0.953613
0.960876
0.952931
0.957012
0.971379
0.983119
0.981015
0.975483
0.968548
0.958641
0.923557
0.828148
0.72044
0.999996
0.99999
0.999974
0.999935
0.999851
0.999699
0.999454
0.999133
0.998877
0.998837
0.999369
0.999522
0.999996
0.999988
0.999963
0.999888
0.999704
0.999398
0.999054
0.998799
0.998535
0.998097
0.996993
0.996552
0.999996
0.999984
0.999909
0.999608
0.99901
0.998708
0.998685
0.998895
0.999045
0.999087
0.997129
0.980424
0.999996
0.999956
0.999645
0.998792
0.998111
0.998141
0.999092
0.999455
0.999651
0.999772
0.999755
0.965641
0.999997
0.999969
0.999579
0.998274
0.998048
0.998609
0.999769
0.999876
0.999923
0.999935
0.999339
0.964282
0.999997
0.999985
0.999452
0.998099
0.998114
0.99954
0.999953
0.999974
0.999979
0.999943
0.998628
0.964902
0.999995
0.999984
0.999463
0.998339
0.998753
0.999675
0.999951
0.999981
0.999984
0.99991
0.997191
0.963188
0.999993
0.999992
0.999708
0.998959
0.99918
0.999683
0.999933
0.999979
0.999984
0.999844
0.995436
0.964902
0.999998
0.999998
0.999759
0.999373
0.99907
0.999439
0.999787
0.999954
0.999984
0.999762
0.994621
0.970713
0.993567
0.983576
0.972808
0.966022
0.963341
0.9689
0.98053
0.99261
0.998763
0.999714
0.996546
0.982642
0.893164
0.83161
0.795172
0.784376
0.78162
0.793067
0.825268
0.882975
0.955015
0.994494
0.996673
0.980022
0.649586
0.613645
0.590809
0.569847
0.562011
0.570985
0.606777
0.67532
0.781565
0.89999
0.979759
0.968041
0.999951
0.99995
0.99995
0.999949
0.999954
0.999961
0.99997
0.999978
0.999984
0.999987
0.999989
0.99999
0.999951
0.999956
0.999961
0.999972
0.999984
0.99999
0.999992
0.999993
0.999993
0.999993
0.999993
0.999993
0.999951
0.999957
0.999957
0.99998
0.999993
0.999994
0.999994
0.999994
0.999994
0.999994
0.999994
0.999994
0.999954
0.999956
0.999943
0.999982
0.999993
0.999994
0.999994
0.999994
0.999994
0.999994
0.999994
0.999994
0.999962
0.999956
0.999931
0.999969
0.999988
0.999993
0.999993
0.999992
0.99999
0.999986
0.999977
0.999977
0.999967
0.999963
0.999931
0.999949
0.999976
0.999982
0.999977
0.999944
0.999887
0.999803
0.999677
0.999685
0.999968
0.999968
0.999939
0.99994
0.999954
0.999846
0.999559
0.998496
0.998436
0.998744
0.998656
0.998531
0.999968
0.999968
0.999957
0.999944
0.999892
0.998867
0.995983
0.993055
0.995519
0.997513
0.997991
0.998298
0.999968
0.999969
0.999967
0.999957
0.999748
0.996626
0.989253
0.989402
0.996048
0.997931
0.998372
0.998589
0.999969
0.999968
0.999969
0.999962
0.999731
0.997483
0.991707
0.989098
0.994564
0.997829
0.998568
0.998581
0.999968
0.999969
0.999962
0.999926
0.999832
0.999205
0.996557
0.993133
0.993119
0.996247
0.998383
0.998572
0.99915
0.999108
0.998611
0.998016
0.997975
0.998586
0.998696
0.997686
0.994627
0.994647
0.996044
0.998221
0.999992
0.999993
0.999994
0.999993
0.999992
0.999991
0.999849
0.995685
0.947163
0.94294
0.942992
0.94294
0.999993
0.999994
0.999994
0.99999
0.999987
0.999984
0.999788
0.996109
0.980643
0.984398
0.994691
0.959993
0.999994
0.999994
0.999994
0.999988
0.999986
0.999981
0.999862
0.998102
0.993011
0.99272
0.995195
0.976363
0.999994
0.999994
0.999993
0.999988
0.999982
0.999951
0.999741
0.99891
0.996881
0.993693
0.995155
0.989999
0.999977
0.999976
0.999972
0.999961
0.999925
0.999793
0.999479
0.99875
0.996526
0.993729
0.995514
0.993773
0.999674
0.999599
0.9996
0.999693
0.999411
0.998452
0.998361
0.998303
0.996751
0.993903
0.995574
0.982669
0.998644
0.998992
0.998865
0.996357
0.989895
0.988907
0.991452
0.995276
0.992182
0.979151
0.969054
0.766913
0.998613
0.99862
0.99647
0.989168
0.985777
0.986016
0.988
0.987734
0.977218
0.92073
0.790362
0.709298
0.998602
0.998399
0.995401
0.990607
0.991797
0.993603
0.993589
0.991971
0.985
0.880636
0.717842
0.709577
0.998591
0.998522
0.99586
0.992728
0.994172
0.996652
0.997765
0.997787
0.995085
0.919191
0.709508
0.709063
0.998587
0.998427
0.995588
0.992601
0.99431
0.997401
0.998811
0.998987
0.998332
0.975461
0.810946
0.70939
0.998424
0.997019
0.991532
0.990817
0.9951
0.99869
0.999045
0.999042
0.999041
0.997995
0.971128
0.773288
0.999999
0.999999
0.999999
0.999999
0.999999
0.999999
0.999999
0.999999
0.999999
0.999999
0.999999
0.999999
0.999999
0.999999
0.999999
0.999999
0.999999
0.999999
0.999999
0.999999
0.999999
0.999999
0.999999
0.999999
0.999999
0.999999
0.999999
0.999999
0.999998
0.999998
0.999998
0.999998
0.999999
0.999999
0.999999
0.999998
0.999999
0.999999
0.999999
0.999998
0.999998
0.999997
0.999997
0.999964
0.999892
0.999935
0.999992
0.999998
0.999999
0.999999
0.999997
0.999997
0.999997
0.999997
0.999948
0.999237
0.998289
0.998252
0.999154
0.999898
0.999999
0.999998
0.999997
0.999997
0.999997
0.999951
0.999246
0.99716
0.995175
0.994206
0.994768
0.997532
0.999999
0.999998
0.999997
0.999984
0.999803
0.998514
0.995611
0.99303
0.992026
0.991607
0.991012
0.991876
0.999999
0.999997
0.999952
0.999442
0.996813
0.991432
0.98612
0.984706
0.986155
0.989077
0.990044
0.989162
0.999998
0.99997
0.99963
0.997717
0.991967
0.981692
0.972573
0.970287
0.97269
0.979851
0.987501
0.988229
0.999985
0.999913
0.999467
0.99749
0.991155
0.977792
0.960866
0.950076
0.949688
0.956675
0.972584
0.98387
0.999916
0.99968
0.998856
0.996576
0.991097
0.978405
0.954759
0.929754
0.918115
0.918881
0.93565
0.964967
0.998645
0.996538
0.992726
0.986884
0.977932
0.962508
0.940758
0.910534
0.876554
0.863062
0.873752
0.917511
0.999999
0.999998
0.999998
0.999998
0.999997
0.999997
0.999996
0.999996
0.999996
0.999997
0.999997
0.999997
0.999998
0.999997
0.999996
0.999995
0.999994
0.999993
0.999993
0.999992
0.999992
0.999993
0.999994
0.999997
0.999997
0.999995
0.999993
0.99999
0.999989
0.999988
0.999987
0.999987
0.999985
0.999983
0.999949
0.999551
0.999996
0.999992
0.999988
0.999985
0.999982
0.999979
0.999977
0.999977
0.999973
0.999958
0.999863
0.993196
0.999995
0.999992
0.999989
0.999985
0.999981
0.999975
0.999968
0.999962
0.999957
0.999892
0.999605
0.943705
0.999715
0.999992
0.999993
0.999993
0.99999
0.999984
0.999968
0.999951
0.999914
0.999347
0.991934
0.894198
0.996254
0.99969
0.999995
0.999996
0.999996
0.999995
0.999984
0.999947
0.999568
0.992366
0.936551
0.894424
0.990177
0.99595
0.999685
0.999994
0.999997
0.999998
0.999994
0.999929
0.997894
0.968618
0.893641
0.891208
0.986907
0.989173
0.996534
0.999819
0.999998
0.999998
0.999953
0.999525
0.994855
0.961118
0.890083
0.892967
0.983534
0.983779
0.990688
0.998601
0.999952
0.999858
0.998735
0.993848
0.983978
0.964984
0.904656
0.891052
0.97478
0.975279
0.982729
0.995026
0.996876
0.993166
0.983095
0.962641
0.953058
0.957879
0.948993
0.893828
0.960191
0.964843
0.965073
0.969244
0.967485
0.951836
0.947596
0.947449
0.948363
0.961329
0.96922
0.921854
0.952913
0.938565
0.915793
0.880557
0.835947
0.790543
0.757865
0.748495
0.745928
0.740109
0.724598
0.698228
0.759933
0.685588
0.605515
0.519675
0.442265
0.38522
0.353754
0.348701
0.352537
0.349844
0.342476
0.329297
0.398074
0.346301
0.293118
0.292545
0.292707
0.292541
0.292702
0.29254
0.292706
0.292545
0.292711
0.292551
0.32364
0.33917
0.354982
0.360102
0.364666
0.371324
0.382192
0.400264
0.429057
0.468454
0.520924
0.590284
0.661659
0.607102
0.546067
0.497904
0.464816
0.443437
0.41901
0.37694
0.318975
0.310482
0.311357
0.312334
0.308877
0.308539
0.308495
0.308535
0.308491
0.308533
0.308594
0.308733
0.309044
0.309635
0.326241
0.343059
0.298861
0.310474
0.333623
0.36461
0.405599
0.4568
0.518589
0.597232
0.686189
0.763862
0.808473
0.780287
0.675068
0.759958
0.832019
0.886376
0.924223
0.946727
0.957575
0.966549
0.973697
0.979634
0.984069
0.980093
0.434847
0.566613
0.64458
0.697854
0.738722
0.731744
0.708014
0.673594
0.613839
0.547981
0.545359
0.549087
0.367249
0.399119
0.422876
0.424857
0.426928
0.429107
0.431177
0.436432
0.454538
0.497043
0.577021
0.68378
0.716968
0.670573
0.672543
0.662368
0.666763
0.68619
0.717896
0.758703
0.801117
0.839847
0.870139
0.893128
0.96433
0.938886
0.918032
0.918906
0.926726
0.937509
0.943413
0.943277
0.938365
0.938741
0.938553
0.93431
0.576982
0.596582
0.590286
0.548639
0.513606
0.512696
0.513823
0.557392
0.657158
0.772626
0.876657
0.933619
0.778239
0.820517
0.82031
0.78392
0.699115
0.618304
0.596599
0.600863
0.628677
0.699176
0.775132
0.843685
0.911083
0.916115
0.91126
0.891206
0.852863
0.801083
0.746167
0.700451
0.684405
0.685055
0.694066
0.726707
0.92721
0.917325
0.904869
0.889187
0.868741
0.841222
0.808828
0.772605
0.732707
0.695706
0.688874
0.68943
0.964367
0.980253
0.986921
0.986767
0.985535
0.987696
0.995034
0.99919
0.999164
0.994535
0.99331
0.994108
0.894753
0.930387
0.953299
0.958354
0.955792
0.952356
0.976134
0.998605
0.999619
0.999607
0.994396
0.988965
0.779566
0.83358
0.876557
0.902369
0.913494
0.915336
0.94063
0.98544
0.999092
0.999619
0.99874
0.993511
0.702032
0.739761
0.793381
0.845054
0.885153
0.908365
0.925957
0.95965
0.990295
0.995774
0.988553
0.958397
0.993778
0.990945
0.987936
0.990386
0.996415
0.998961
0.999042
0.998727
0.997681
0.99505
0.989052
0.978509
0.986338
0.985352
0.986618
0.9913
0.995362
0.994811
0.992187
0.987221
0.979066
0.967465
0.949532
0.923516
0.986225
0.977351
0.961756
0.939578
0.91369
0.887494
0.860134
0.832353
0.803118
0.770726
0.728967
0.67537
0.860036
0.73469
0.609492
0.538386
0.511072
0.502863
0.502003
0.501603
0.503547
0.503189
0.497202
0.477669
0.973676
0.965942
0.956286
0.9432
0.919485
0.868526
0.784364
0.714116
0.68547
0.688335
0.731495
0.817264
0.889212
0.852507
0.816867
0.777584
0.719626
0.633183
0.509708
0.382609
0.343671
0.351764
0.401431
0.504334
0.614396
0.557187
0.511545
0.476257
0.44753
0.419618
0.38921
0.353411
0.327088
0.296552
0.276689
0.275741
0.447993
0.443432
0.443619
0.449314
0.458752
0.47697
0.478404
0.477931
0.466271
0.437698
0.392364
0.326972
0.917207
0.96304
0.954153
0.947753
0.947321
0.947691
0.947534
0.948839
0.953629
0.962943
0.968981
0.963092
0.648
0.801513
0.919151
0.952322
0.953277
0.953146
0.953665
0.952644
0.941146
0.917858
0.879587
0.825334
0.292874
0.365539
0.475399
0.610655
0.743173
0.76497
0.74792
0.716485
0.668861
0.598015
0.524707
0.456171
0.290525
0.289522
0.289847
0.295597
0.331231
0.366926
0.361047
0.343611
0.299236
0.293662
0.294142
0.308649
0.741118
0.744614
0.754636
0.760699
0.767484
0.779533
0.805754
0.849366
0.908002
0.957452
0.982871
0.987986
0.817838
0.817905
0.821138
0.822964
0.824901
0.835055
0.863477
0.909198
0.955651
0.983954
0.990909
0.989056
0.8111
0.812719
0.816802
0.818993
0.822805
0.840191
0.879081
0.930257
0.97213
0.991039
0.992187
0.981124
0.808849
0.811444
0.815751
0.81794
0.825098
0.851303
0.900603
0.953085
0.985341
0.994534
0.994081
0.971158
0.991069
0.99167
0.991671
0.989865
0.984019
0.978736
0.980447
0.987405
0.992788
0.992763
0.992825
0.991517
0.985999
0.981441
0.975268
0.967317
0.946943
0.913112
0.922978
0.963037
0.986096
0.990801
0.991893
0.985867
0.952446
0.935063
0.926902
0.917045
0.877456
0.821908
0.856757
0.942834
0.987375
0.990508
0.98946
0.961169
0.841881
0.825304
0.863
0.870224
0.821947
0.794982
0.830624
0.927603
0.986646
0.99265
0.987916
0.908393
0.979118
0.949925
0.907994
0.863877
0.832735
0.820643
0.821833
0.867956
0.92229
0.939975
0.938545
0.904885
0.9572
0.883049
0.747574
0.611245
0.588939
0.61005
0.721328
0.852379
0.922078
0.94018
0.920284
0.825852
0.869183
0.688242
0.517539
0.473971
0.455597
0.512358
0.722099
0.885563
0.939337
0.940383
0.878814
0.752559
0.686932
0.44608
0.370266
0.382594
0.398625
0.593421
0.837188
0.936262
0.95571
0.941066
0.82677
0.737496
0.858883
0.821189
0.790235
0.749272
0.714485
0.694062
0.670784
0.669975
0.693719
0.724905
0.733994
0.737803
0.744654
0.748959
0.764686
0.776603
0.794909
0.783054
0.710111
0.688824
0.751013
0.826356
0.829933
0.835197
0.676176
0.767767
0.885128
0.934332
0.933134
0.882156
0.758565
0.735082
0.856572
0.938588
0.930179
0.923515
0.645218
0.856409
0.945598
0.958691
0.958423
0.905915
0.753363
0.727128
0.894926
0.972453
0.970174
0.939077
0.75922
0.806635
0.852475
0.889476
0.923923
0.948622
0.953235
0.953958
0.938317
0.906086
0.820031
0.512642
0.859192
0.893631
0.908286
0.908507
0.912738
0.874514
0.793187
0.700211
0.622465
0.625598
0.325145
0.00121647
0.923385
0.908988
0.894286
0.857012
0.790142
0.715903
0.64893
0.584862
0.561634
0.532615
0.129763
0.00121645
0.906724
0.871545
0.843581
0.827329
0.797137
0.790159
0.744149
0.650031
0.581276
0.353789
0.0138321
0.00121648
0.0264257
0.00289773
0.0213546
0.223973
0.377642
0.42849
0.487029
0.589936
0.70952
0.791422
0.846234
0.885759
0.00121644
0.00290954
0.0610321
0.498491
0.757809
0.807419
0.827842
0.857907
0.900932
0.938916
0.951804
0.95174
0.00121646
0.0039497
0.07972
0.607131
0.929954
0.940102
0.933746
0.93035
0.933047
0.942883
0.949181
0.941569
0.00121645
0.00434578
0.0843866
0.614582
0.952695
0.944318
0.922323
0.901482
0.897936
0.914113
0.91348
0.908695
0.914052
0.915426
0.876893
0.781009
0.6303
0.49856
0.438286
0.42863
0.412019
0.38555
0.358226
0.344731
0.951804
0.940857
0.917046
0.871255
0.749004
0.552262
0.43624
0.42717
0.430037
0.430094
0.468686
0.553021
0.93121
0.913599
0.913623
0.92146
0.894036
0.738836
0.57995
0.53194
0.588938
0.62113
0.668599
0.694327
0.909601
0.910685
0.917399
0.921519
0.919279
0.836892
0.724935
0.679629
0.693684
0.704904
0.704684
0.684021
0.373911
0.400605
0.416263
0.324043
0.326056
0.368794
0.50307
0.47559
0.46681
0.570836
0.686549
0.731749
0.652079
0.664299
0.493047
0.392732
0.650436
0.807948
0.814129
0.768177
0.732654
0.748866
0.804728
0.817771
0.694503
0.69372
0.611133
0.585792
0.803707
0.880156
0.858208
0.795542
0.746142
0.739195
0.794565
0.810978
0.63455
0.628132
0.66851
0.735134
0.857292
0.901005
0.876274
0.802195
0.741386
0.739258
0.792706
0.80846
0.807118
0.810871
0.815065
0.817832
0.831078
0.8695
0.92624
0.972574
0.993229
0.996388
0.995999
0.993882
0.806036
0.810095
0.813803
0.819103
0.840439
0.89125
0.950431
0.985961
0.997013
0.997831
0.998381
0.998967
0.805109
0.808923
0.813115
0.822083
0.856084
0.918346
0.97156
0.994057
0.998558
0.998452
0.998429
0.998972
0.804654
0.808095
0.81333
0.828559
0.87722
0.945395
0.986296
0.997724
0.998979
0.998624
0.998624
0.99909
0.804225
0.806866
0.813362
0.838577
0.904701
0.970379
0.994949
0.999059
0.999163
0.998594
0.998598
0.999132
0.803651
0.805763
0.814408
0.853012
0.934374
0.987582
0.998083
0.999319
0.999331
0.998785
0.998609
0.999208
0.8029
0.804797
0.816565
0.873345
0.963075
0.996211
0.998877
0.999336
0.999513
0.999115
0.998752
0.999379
0.801937
0.803718
0.817926
0.899585
0.983865
0.998597
0.999051
0.99929
0.999665
0.999485
0.999176
0.99962
0.801273
0.802753
0.818826
0.929785
0.993359
0.998967
0.999092
0.999511
0.999755
0.999759
0.999683
0.999827
0.800866
0.801614
0.81712
0.954309
0.996135
0.999028
0.999027
0.999557
0.999816
0.999895
0.999919
0.999933
0.800698
0.80092
0.814634
0.970511
0.996956
0.999157
0.99916
0.999607
0.999879
0.999941
0.999941
0.999941
0.800493
0.800676
0.80631
0.981975
0.996127
0.99613
0.996333
0.998594
0.999646
0.999805
0.99983
0.999856
0.773981
0.79775
0.867976
0.873273
0.840178
0.79484
0.829702
0.925123
0.985004
0.992763
0.988037
0.859386
0.773566
0.909844
0.950777
0.946455
0.926026
0.860674
0.849413
0.925783
0.984263
0.992846
0.98959
0.849887
0.70089
0.953231
0.978395
0.97847
0.975726
0.938188
0.873064
0.905153
0.977298
0.990607
0.98492
0.871905
0.630213
0.954295
0.963669
0.959615
0.963783
0.942433
0.911241
0.908498
0.94826
0.971394
0.962719
0.913582
0.630485
0.957618
0.950725
0.940628
0.941865
0.938129
0.937957
0.93959
0.936195
0.936641
0.938737
0.96061
0.645583
0.957469
0.942172
0.940609
0.941212
0.938304
0.961076
0.974212
0.956865
0.947382
0.959144
0.986112
0.652274
0.932868
0.940527
0.940568
0.940609
0.949625
0.981658
0.993019
0.988102
0.980685
0.987652
0.994525
0.543673
0.900705
0.941549
0.940609
0.958687
0.981062
0.994628
0.995856
0.995919
0.995588
0.995912
0.995846
0.37915
0.848957
0.944023
0.962859
0.980412
0.994588
0.995856
0.995936
0.995873
0.995933
0.995859
0.995916
0.261406
0.715028
0.929026
0.971167
0.985177
0.994037
0.995883
0.995873
0.995924
0.995874
0.995916
0.995866
0.261399
0.488153
0.853048
0.94993
0.965024
0.987411
0.995856
0.995901
0.995873
0.995001
0.995866
0.995899
0.261391
0.261385
0.26138
0.606514
0.731134
0.704247
0.704328
0.757111
0.812561
0.831533
0.795864
0.726831
0.474864
0.343522
0.343325
0.376437
0.531142
0.813242
0.936232
0.959953
0.961338
0.931576
0.803371
0.756418
0.406732
0.343325
0.34788
0.441006
0.723961
0.901771
0.955253
0.962367
0.961975
0.923893
0.808242
0.762324
0.495291
0.407278
0.502763
0.708593
0.860171
0.914548
0.944439
0.962304
0.961708
0.92435
0.808829
0.762564
0.793681
0.778202
0.839975
0.887729
0.892498
0.899571
0.926491
0.956008
0.961066
0.924983
0.802656
0.762633
0.963778
0.956169
0.934111
0.897278
0.869563
0.870266
0.905483
0.950885
0.96097
0.922289
0.786865
0.769937
0.986594
0.969698
0.930168
0.876765
0.837312
0.836872
0.880989
0.942782
0.958597
0.906652
0.786474
0.804984
0.990926
0.97285
0.931269
0.871954
0.823098
0.817948
0.863665
0.93385
0.947571
0.885133
0.787573
0.842989
0.993254
0.97964
0.941244
0.877337
0.822282
0.817857
0.863695
0.927945
0.934753
0.875905
0.832804
0.863276
0.994301
0.983731
0.949195
0.886031
0.828613
0.825882
0.869987
0.924844
0.930915
0.886623
0.863357
0.863317
0.994419
0.985185
0.956103
0.906247
0.866555
0.86433
0.888311
0.924392
0.92955
0.87817
0.857702
0.860003
0.990566
0.955194
0.838386
0.697688
0.63056
0.622153
0.650939
0.71182
0.703942
0.601632
0.683159
0.704238
0.60023
0.475034
0.46541
0.465439
0.465287
0.465316
0.465176
0.465302
0.46524
0.465427
0.465364
0.511618
0.634586
0.911092
0.94109
0.958226
0.960364
0.921451
0.763408
0.674435
0.883798
0.972467
0.968548
0.918292
0.635396
0.940736
0.957991
0.95753
0.968463
0.952546
0.809282
0.665223
0.788235
0.965973
0.956598
0.875587
0.635104
0.954764
0.97999
0.968126
0.973924
0.978031
0.898738
0.664615
0.665182
0.914703
0.94461
0.879582
0.635396
0.955033
0.984847
0.983687
0.979243
0.985012
0.973078
0.79335
0.663725
0.731473
0.89914
0.892192
0.635387
0.95282
0.984894
0.987501
0.986392
0.987489
0.987435
0.935474
0.689663
0.675321
0.758385
0.873334
0.655538
0.954669
0.983637
0.987478
0.987561
0.987478
0.983419
0.966509
0.842598
0.674466
0.688958
0.811686
0.66984
0.958645
0.982343
0.987594
0.987478
0.980177
0.938897
0.930334
0.919182
0.763852
0.708968
0.780866
0.672293
0.960063
0.98291
0.987445
0.981793
0.935581
0.903084
0.903464
0.916481
0.907074
0.812267
0.794463
0.64526
0.953089
0.981882
0.987146
0.970883
0.927221
0.903464
0.903106
0.937188
0.952628
0.929738
0.835384
0.586364
0.929341
0.974024
0.984965
0.979642
0.956946
0.929958
0.931999
0.964527
0.964435
0.964527
0.883009
0.534072
0.869594
0.944673
0.965338
0.968838
0.954818
0.950112
0.954952
0.964359
0.964527
0.964359
0.914864
0.533959
0.760654
0.852883
0.874847
0.882888
0.883692
0.912959
0.953649
0.964414
0.964359
0.964414
0.93615
0.85389
0.852885
0.861512
0.888991
0.883946
0.883399
0.828468
0.711576
0.574797
0.217973
0.00267541
0.00148818
0.852885
0.852875
0.912142
0.913114
0.911894
0.878834
0.816714
0.71424
0.506599
0.0828241
0.00694347
0.033495
0.864487
0.897705
0.913083
0.912402
0.908139
0.838659
0.768438
0.670891
0.354634
0.0324269
0.0186833
0.0578816
0.905645
0.912987
0.912367
0.913044
0.90295
0.825526
0.729816
0.566171
0.195481
0.0327102
0.0287975
0.04927
0.912633
0.91233
0.913013
0.912367
0.881831
0.794137
0.665994
0.403901
0.0982827
0.0400607
0.0450222
0.0196056
0.899702
0.91287
0.91233
0.87579
0.778217
0.627933
0.480843
0.226111
0.0794557
0.0631383
0.166185
0.019612
0.873522
0.912291
0.883342
0.636864
0.473725
0.396985
0.357876
0.213603
0.125185
0.131231
0.170256
0.0199344
0.848865
0.900678
0.747848
0.160197
0.156617
0.207724
0.249602
0.230629
0.223482
0.223637
0.170553
0.0143706
0.847049
0.869974
0.435977
0.0308145
0.0444965
0.0565994
0.083815
0.137259
0.174768
0.215686
0.0717053
0.0047536
0.849329
0.824771
0.0922506
0.0129141
0.0143373
0.00872463
0.0112654
0.0283658
0.0529647
0.0501984
0.0149636
0.00312675
0.86175
0.724994
0.00858738
0.00565412
0.00423687
0.00304682
0.00304683
0.00339586
0.00682681
0.00526865
0.0036245
0.00304463
0.860428
0.454943
0.00327485
0.00324674
0.00304682
0.00304683
0.00304617
0.00304683
0.00304551
0.00304621
0.00304494
0.00304575
0.00121649
0.00397359
0.0844635
0.628931
0.952815
0.939348
0.917739
0.896395
0.891645
0.891585
0.891645
0.901109
0.00121648
0.00431009
0.090826
0.65539
0.953672
0.957419
0.954186
0.944182
0.917526
0.895587
0.906375
0.928095
0.00121652
0.00463645
0.0942603
0.658137
0.960797
0.964886
0.964771
0.961348
0.948052
0.943826
0.951315
0.928025
0.00121651
0.00400808
0.0885784
0.641367
0.958757
0.964794
0.965109
0.964774
0.96495
0.964753
0.958082
0.907052
0.0012166
0.00214859
0.0850476
0.624589
0.955302
0.965124
0.964825
0.965167
0.964827
0.965008
0.951837
0.913611
0.00133245
0.00126179
0.0785856
0.599488
0.951415
0.964858
0.965182
0.964843
0.965213
0.964827
0.960855
0.938374
0.00133254
0.000818036
0.0558237
0.526185
0.941516
0.965179
0.96489
0.965233
0.964883
0.965217
0.964827
0.945402
0.00122924
0.000453713
0.0234574
0.347628
0.893483
0.964853
0.965226
0.964843
0.965245
0.96416
0.952095
0.938664
0.000950091
0.000384236
0.00461912
0.124677
0.631516
0.919291
0.960179
0.953278
0.807552
0.613315
0.699875
0.832166
0.000685878
0.000384241
0.00050244
0.0126995
0.134652
0.39251
0.491427
0.330163
0.0539191
0.00231765
0.0532422
0.214467
0.000438129
0.00038424
0.000385129
0.0004922
0.000762827
0.00123254
0.00184071
0.00162691
0.000384681
0.000384678
0.000463685
0.00115098
0.000384245
0.000384245
0.000385129
0.000384702
0.00038469
0.000384691
0.000384679
0.000384687
0.000384679
0.000384689
0.000389253
0.000480551
0.89596
0.896266
0.909666
0.916039
0.913737
0.842513
0.74362
0.706103
0.705783
0.705459
0.683801
0.642988
0.879285
0.831032
0.863938
0.894388
0.900409
0.836231
0.736132
0.705128
0.705459
0.692484
0.620835
0.542126
0.865333
0.814529
0.811871
0.850544
0.874589
0.839486
0.749945
0.711179
0.698714
0.648387
0.552137
0.542683
0.851941
0.829505
0.810124
0.806417
0.837051
0.850954
0.793781
0.72719
0.669462
0.571732
0.463435
0.739543
0.878134
0.841682
0.801942
0.802153
0.839453
0.85182
0.835969
0.710942
0.586142
0.468997
0.463457
0.739543
0.916249
0.874548
0.815581
0.803739
0.842721
0.851812
0.796026
0.609119
0.457402
0.456831
0.729815
0.739543
0.912051
0.87105
0.824468
0.801399
0.804253
0.758533
0.604921
0.453704
0.453105
0.507951
0.730229
0.695926
0.883199
0.79383
0.737233
0.713989
0.63958
0.530197
0.445229
0.444717
0.51145
0.71049
0.713095
0.640936
0.849048
0.749761
0.638613
0.556259
0.476697
0.439237
0.439187
0.463182
0.586783
0.776193
0.762321
0.579601
0.390168
0.510701
0.588362
0.529026
0.484486
0.480652
0.523939
0.623867
0.777427
0.81684
0.79718
0.5005
0.00399956
0.0330579
0.114233
0.200368
0.291774
0.400451
0.552667
0.74003
0.81684
0.816838
0.710758
0.379271
0.000537065
0.000540377
0.000735087
0.00500457
0.0370844
0.111767
0.207447
0.306654
0.358787
0.338063
0.338026
0.338024
0.703695
0.627992
0.645469
0.757221
0.866586
0.915655
0.910323
0.834679
0.744164
0.743451
0.792014
0.806277
0.896071
0.750136
0.657237
0.76582
0.886313
0.93523
0.923289
0.858074
0.758111
0.745129
0.79211
0.804991
0.942471
0.911292
0.802134
0.8498
0.918868
0.942396
0.927759
0.872373
0.766962
0.746291
0.794015
0.80415
0.942436
0.942506
0.93873
0.934851
0.942419
0.942493
0.929721
0.874632
0.768417
0.747511
0.795595
0.803581
0.942497
0.942407
0.942526
0.942429
0.942515
0.942419
0.934949
0.879756
0.761537
0.748783
0.796939
0.803036
0.942403
0.938201
0.929656
0.936325
0.94242
0.94245
0.935525
0.879005
0.760492
0.749352
0.798316
0.802537
0.935921
0.895638
0.881319
0.905778
0.942244
0.942396
0.934352
0.867152
0.760038
0.750109
0.799941
0.802069
0.912621
0.843525
0.837255
0.882659
0.939353
0.942425
0.925449
0.843781
0.720918
0.759624
0.801231
0.801608
0.869473
0.846082
0.820907
0.860594
0.928693
0.939594
0.911396
0.819823
0.581643
0.77241
0.801263
0.801268
0.862353
0.856933
0.819543
0.824231
0.890379
0.892798
0.835669
0.683769
0.389746
0.783104
0.801248
0.801045
0.860702
0.790872
0.657103
0.539942
0.585195
0.570956
0.474893
0.312951
0.260787
0.791191
0.800741
0.800752
0.352299
0.235988
0.174429
0.174423
0.174429
0.174422
0.174429
0.174422
0.223881
0.797825
0.800512
0.800459
0.800419
0.800214
0.800178
0.800078
0.800094
0.80001
0.800031
0.799997
0.800008
0.800011
0.799998
0.799998
0.800001
0.8
0.8
0.8
0.8
0.8
0.8
0.8
0.800459
0.800411
0.800205
0.800078
0.800061
0.800008
0.800031
0.799987
0.800008
0.799991
0.799998
0.799998
0.800001
0.799999
0.8
0.8
0.8
0.8
0.8
0.8
0.800422
0.800179
0.800177
0.800056
0.800007
0.800007
0.799987
0.799986
0.799972
0.799972
0.799972
0.799972
0.799972
0.799973
0.799979
0.799982
0.799986
0.799989
0.799992
0.799996
0.800361
0.800178
0.80018
0.800083
0.800031
0.799988
0.799988
0.799967
0.799967
0.799966
0.799966
0.799972
0.799974
0.799974
0.799978
0.79998
0.799986
0.799989
0.799994
0.799996
0.80036
0.800277
0.800145
0.800112
0.800054
0.800054
0.800022
0.800012
0.800012
0.800002
0.800003
0.800001
0.800001
0.8
0.8
0.8
0.8
0.8
0.8
0.8
0.800302
0.800218
0.800158
0.800095
0.800094
0.800029
0.800031
0.800009
0.800012
0.800011
0.800002
0.8
0.800001
0.8
0.8
0.8
0.8
0.8
0.8
0.8
0.961558
0.959697
0.964887
0.96509
0.965341
0.96509
0.964967
0.96509
0.966007
0.96509
0.965663
0.96509
0.963199
0.949232
0.915477
0.857745
0.797152
0.786795
0.786865
0.798
0.958252
0.942505
0.936751
0.931523
0.907173
0.855716
0.799507
0.786838
0.821691
0.909163
0.958989
0.965276
0.96509
0.963228
0.952015
0.922201
0.867476
0.811572
0.809938
0.847808
0.947978
0.943501
0.911509
0.801879
0.635182
0.500639
0.423713
0.423465
0.423927
0.477765
0.676388
0.856281
0.911631
0.91244
0.90319
0.875603
0.847847
0.836896
0.851285
0.894865