/*--------------------------------*- C++ -*----------------------------------*\
| =========                 |                                                 |
| \\      /  F ield         | OpenFOAM: The Open Source CFD Toolbox           |
|  \\    /   O peration     | Version:  2212                                  |
|   \\  /    A nd           | Website:  www.openfoam.com                      |
|    \\/     M anipulation  |                                                 |
\*---------------------------------------------------------------------------*/
FoamFile
{
    version     2.0;
    format      ascii;
    arch        "LSB;label=32;scalar=64";
    class       volScalarField;
    location    "1.5";
    object      p;
}
// * * * * * * * * * * * * * * * * * * * * * * * * * * * * * * * * * * * * * //

dimensions      [1 -1 -2 0 0 0 0];

internalField   nonuniform List<scalar> 
3312
(
18546.3
18546.9
18548.4
18548.9
18549.1
18549.8
18554
18549.4
18544.5
18548.4
18556.3
18567.7
18591.9
18593.2
18599.2
18603.3
18609
18610.3
18625.8
18626.8
18623.7
18621.5
18623.2
18626.6
18590.4
18593.2
18601.4
18610
18622.7
18626.9
18630.7
18633.7
18633.7
18630.5
18629.7
18629.1
18625.8
18621.9
18625
18635.2
18650.9
18666.8
18673.2
18678
18675.6
18671.4
18664.9
18656.7
18623.2
18603.8
18604.6
18613.3
18634.8
18661.6
18678.7
18685.4
18682
18673.7
18668.5
18658.5
18653.3
18628.9
18620.7
18627.9
18651.9
18681.6
18705.1
18714.4
18706.8
18702.7
18696.2
18682.7
18677.3
18648.2
18644
18641.4
18663.3
18704.6
18729.3
18745.2
18734.5
18709.2
18703.5
18696.6
18729.5
18678.7
18662.4
18664.6
18694.7
18746.3
18784.1
18791.8
18773.9
18750.2
18732.8
18723.3
18763.6
18708.9
18687.4
18688.1
18731.9
18793.6
18841.5
18862.3
18837.4
18800.2
18761.2
18748.7
18883.9
18876.9
18833.4
18813.9
18843.2
18910.2
18942.1
18954.6
18903.8
18829.5
18778
18752.6
18894.4
18887.5
18884.7
18896.7
18920.3
18948.1
18923.9
18922.6
18900.9
18843.9
18798.9
18767.4
19054.9
19083.9
19001.9
18923
18968.7
19037.9
19064.1
19026
18931.6
18812.9
18718.3
18678.8
18586.7
18597.7
18606
18604.9
18581.1
18547.2
18489.9
18484.3
18495.9
18534.8
18567.8
18591.2
18634.4
18628.3
18625.7
18603.6
18554.6
18473.9
18396.9
18388.6
18412.7
18475.2
18520.9
18585.4
18627.2
18612.7
18591.5
18549.2
18488.4
18361.3
18255.8
18243.1
18280.7
18372.5
18433.3
18528.2
18650
18634.3
18611.9
18564.7
18481.7
18344.8
18242.8
18192.5
18243.1
18343
18405.2
18524.4
18647.6
18626.3
18597.2
18557.9
18506.6
18420.9
18264.8
18231.8
18251.9
18370.4
18437.5
18586.4
18670.9
18651.2
18613.9
18568.2
18516.1
18470.5
18377
18282.3
18202.1
18405.8
18474.7
18658.3
18691.6
18675.8
18630.8
18576.4
18512.9
18500.1
18534.7
18477.9
18508.6
18585.1
18641.4
18812.2
18711.2
18702.8
18656.6
18612.4
18591.9
18635.9
18706.8
18777.3
18882.8
18948.2
18932.2
19015.2
18730.6
18732.6
18690.7
18673.3
18646.8
18708.2
18891.8
19070.2
19116
19138.3
19100.2
19119
18740.2
18745.8
18731.8
18724.2
18740.1
18815.8
18926.2
19077.1
19168.1
19216.5
19207.7
19221.1
18744
18723.5
18700.2
18710.4
18757.3
18834.8
18958.8
19090.5
19155.3
19191.4
19161.7
19143.3
18637.3
18718.5
18728.1
18723.9
18779.6
18843.7
18926.1
19025.9
19093.9
19132.5
19058.4
19089.6
11543.6
11539.8
11532.3
11516.9
11498.3
11480.2
11467.5
11461
11458.7
11448.6
11400.3
11342.1
11579.7
11569.4
11554.4
11534.3
11503
11503.2
11479.2
11495.7
11527.7
11507.8
11494.5
11444.2
11606.7
11596.4
11580.2
11564.8
11542.5
11549.4
11546.8
11539.8
11528
11489.6
11449.5
11408.3
11661.2
11651.2
11644.3
11640.2
11643.2
11656.3
11649.6
11643.8
11611
11557.2
11490.7
11425.9
11693.8
11685.5
11683.7
11685.9
11698.9
11709.6
11698.5
11678.9
11627.4
11547.3
11449.2
11359.3
11743.8
11732.9
11729.7
11735.8
11750.9
11763.5
11755.2
11736.6
11680.8
11579.8
11454.7
11324.3
11778.7
11767.2
11760.8
11764.1
11775.9
11800.8
11796.5
11788.2
11726.3
11619.9
11476.6
11326.5
11819.3
11802.6
11779
11786.7
11795.5
11834.8
11843.3
11854.4
11808.3
11722.8
11589.1
11447.3
11870
11836.4
11772.1
11756.4
11780.9
11853
11877.1
11930
11899.5
11840.6
11723.7
11593.6
11886.7
11861.2
11778.1
11743.5
11801.6
11893
11965.7
12034.4
12006.6
11962.9
11844.6
11724.5
12003.2
11977.9
11927.5
11872
11904.3
11970.9
12066.3
12144.2
12109
12061
11945.1
11830.6
11949.3
11931.1
11743.7
11859.8
12089.1
12145.4
12259.1
12264
12212.3
12143.6
12002.2
11863.1
11286.7
11246.4
11233.4
11244.4
11276.5
11326.6
11382.4
11434.8
11464.8
11482.2
11461.9
11458.5
11416.5
11395.6
11389.1
11403.5
11434
11467.1
11504.5
11523.5
11528.6
11518.4
11469.2
11478.9
11379.4
11370.1
11378.1
11404.6
11441.6
11478.6
11512.2
11525.4
11533.8
11503.9
11483.9
11474.7
11381.2
11370.4
11384.6
11424.6
11474.2
11519.9
11558.5
11570.1
11586.7
11571.8
11597.3
11538.6
11303.2
11300.3
11337.8
11401.1
11478.1
11547.3
11594.5
11621.2
11637.2
11626.6
11633.3
11536.2
11241.6
11245.6
11299.9
11393.9
11492.3
11591.5
11657.5
11694
11717
11716.3
11713.2
11560
11229
11233.9
11297.1
11416.7
11532.2
11646.6
11718.7
11770.9
11791
11811.2
11807.6
11686.5
11334.3
11322.9
11377.5
11474.3
11585.7
11706
11772.4
11856.2
11902.4
11953.6
11972
11823.5
11473
11431.6
11454.5
11531.1
11636.1
11744.7
11828.5
11918.8
11978.3
12047.7
12102.9
12091.6
11593.6
11525.7
11511
11552.3
11633.5
11737.5
11824.3
11950.7
12073.8
12258.9
12447.6
12575.4
11668.3
11566.9
11524.6
11553.5
11611.3
11716
11821.3
11959.2
12073.3
12237.9
12459.4
12608.4
11711.9
11591.2
11477.4
11398.6
11304.5
11094.2
11054.4
11786.6
12343
12539.6
12803.5
12961.1
11110.4
11086.8
11063.2
11034.5
11023.7
11032.7
11058.5
11083.1
11108.5
11119.2
11193
11197.3
11098
11051.4
11027.9
10984.1
10975.7
10989.1
11036.2
11077
11102.1
11133.7
11130.4
11230.1
11062
10990.8
10958
10886.8
10870.6
10890.8
10949.2
10991.6
11024.4
11052.9
11064
11049.7
11042.7
10948.5
10901.7
10816.7
10791.1
10827.2
10896
10950.8
11004
11050.4
11056.1
11052.5
11056.5
10956.5
10897.6
10799.7
10784.1
10826.1
10894.8
10961.7
11024
11056.4
11062.4
11042.6
11110.1
11016.8
10962.3
10882.7
10870.5
10921.7
10994.6
11059.4
11112.2
11127
11112.6
11078.3
11180.9
11102.1
11062.8
11009.7
11019.5
11072.3
11132.1
11183.9
11228.8
11227.4
11195.3
11138.4
11254.4
11182.7
11162.2
11136.9
11160.5
11214.6
11270
11315.1
11348.7
11329.2
11284.7
11210.3
11347.1
11295.4
11276.1
11266.1
11286.8
11347.9
11390.2
11427.6
11449.1
11426.3
11372.5
11294.2
11328.4
11296.4
11338.5
11364
11402.7
11468.3
11507.7
11536.5
11555.4
11528.2
11468.6
11381.9
11434.6
11475.7
11520.9
11540.6
11555.6
11573.9
11599.4
11615.1
11623.9
11590.3
11532.5
11450.8
11305
11286.8
11401.8
11551
11625.7
11644.9
11675
11685.1
11705
11684.8
11620
11539.3
11064.2
10871.9
10743.7
10679.5
10672.9
10728
10850.1
11008.6
11218.2
11446.1
11976.6
12128.5
11212.6
11139.6
11077.4
11016.7
11024.4
11048
11099.2
11151
11229.1
11253.6
11447.2
11587.6
10993
10948.8
10929.5
10929.9
10953.8
10990.5
11055.3
11113
11182.4
11179.2
11237.2
11003
11025.3
11001.3
11001.5
10996.2
11012.2
11036.1
11078.1
11106.9
11147.6
11096.8
11131.5
10711.4
11009.1
10978.7
10959.8
10944.7
10968.2
11002.3
11055.9
11085.9
11130.4
11062.2
11109.3
10621.4
11027.4
10999.2
10972
10954.6
10976.3
11021.2
11083.9
11108.6
11149
11082.1
11104.8
10523.7
11069.2
11015.6
10967.6
10938.8
10971.6
11029.7
11117.5
11157.4
11211.9
11175.9
11177
10568
11124.6
11057.5
10999.3
10975.1
11018.9
11096.6
11196.6
11251.3
11316.9
11301.3
11318.8
10764.8
11205.7
11129.1
11061.5
11035.5
11081.2
11158.9
11259.4
11321.8
11398
11398.9
11445.2
10976.7
11287.2
11198.7
11133.8
11111.5
11160.9
11231.9
11328.9
11399.7
11488.5
11527
11626.1
11675.5
11358.7
11270.4
11208.3
11179.4
11212.7
11274.4
11358.2
11426.6
11526
11592.3
11753.2
12197.8
11446.5
11351.6
11280.3
11242.8
11258.5
11304.3
11379
11450.1
11573.8
11740.1
12278.8
15690
18057.4
18048.6
18043.5
18032.4
18027.1
18027.8
18026.1
18030.5
18028.6
18034.8
18038.7
18043.4
18079.5
18057.4
18048.5
18039.3
18035.9
18041.4
18037.7
18036
18034.9
18058.9
18074
18086
18092.4
18062.7
18060.1
18052.9
18053
18055.5
18055.1
18058.3
18070.8
18086.7
18110.3
18119.7
18133.6
18109.2
18106.4
18105.1
18100.5
18094.7
18090.6
18103.8
18127.3
18150.5
18169.6
18183.1
18165.6
18153.1
18153.6
18157.7
18158.3
18159.2
18164.4
18183
18200.8
18214.2
18224.2
18230.9
18203.5
18194
18194.6
18209.8
18215.7
18224.7
18234.3
18252.6
18268.5
18278.9
18285.7
18286.4
18235.1
18231.8
18232.5
18254.7
18268.6
18288.6
18302.8
18325.6
18334.6
18336.3
18335.8
18333.2
18276.4
18271.9
18272
18292.8
18316.6
18342.7
18362.3
18381.8
18394.4
18393.1
18389.2
18379.5
18306
18316.7
18308.5
18334.2
18358
18389.1
18415.5
18434.5
18439.3
18433.7
18428.6
18417.9
18348.5
18359.2
18359.2
18383.3
18401.9
18432.6
18461.6
18477.9
18489.4
18482.2
18471.3
18452.6
18397.4
18403.3
18384
18421.4
18440.2
18472.9
18514.5
18544
18548.2
18542.8
18526.5
18508.5
18336.4
18516.2
18477.7
18522.3
18570.9
18848
18811.2
18710.9
18655.3
18624.5
18607.4
18580.5
18058.9
18060.6
18049.8
18044.4
18045.4
18056
18069.2
18096.3
18102
18113.1
18096.7
18092.3
18123
18132.8
18136.4
18135.7
18135.1
18135.3
18140.8
18145.6
18141.5
18139.1
18095.3
18107.2
18128.6
18136.8
18141.8
18144.8
18149.4
18145.6
18151.2
18149.7
18151
18141.9
18127.3
18122.5
18196.8
18203.8
18208.6
18202.5
18204.2
18194.5
18197.4
18187.7
18192
18170.9
18180
18149
18236.3
18233.6
18233.9
18228.5
18233.7
18221.5
18229.2
18209.7
18222.4
18198.1
18208.3
18173.2
18288.6
18286.1
18285.2
18277.8
18283.3
18273.4
18282.3
18261.6
18263.9
18240.9
18234.3
18196.7
18330.3
18320.6
18312
18302
18308.4
18304.7
18312.2
18301.8
18299.1
18286.4
18263.8
18243.8
18373.3
18355
18343.9
18331.5
18340.7
18341.5
18349.3
18350
18340.8
18325.1
18286.7
18257.1
18411.8
18396.9
18373.9
18337.1
18353.7
18376.4
18395.6
18401.2
18389
18377.2
18334.9
18319.2
18433.5
18397
18364.8
18365.2
18391.6
18415.1
18438.3
18442.9
18430.7
18412.2
18381.4
18301.1
18500.4
18465.5
18422.9
18384.8
18421.4
18482.3
18507.2
18510.5
18497.4
18499.9
18520.6
18408.2
18586.2
18574.2
18584.8
18541.7
18517.4
18529.3
18573
18569.4
18520.3
18511
18526.3
18332.5
18536.7
18854.4
18791.6
18772.5
18457.6
18601.2
18506.9
18557
18425.7
18569.7
18385.8
18149.7
22410
20204.9
18038.8
17656.6
17557.4
18178.9
17376.4
18350
18758.5
17925.2
18751.4
18953.7
16925.8
18540.6
20198
20314.7
19992.5
19554.9
18106.1
17049.6
16587.5
16626.3
15653.5
15226
19992.7
20315.4
19156.3
17874.1
16805
16409
15839.3
15806.6
15637
15816.5
16258.4
16372.8
18175.7
17905.5
18613.7
18276
18522.8
18349.8
18984.5
19062.4
19028.9
18991.6
18758.7
17502.3
18536.9
17993.9
18024.8
18242.2
19542.4
20222
17735.7
16974.2
18874.9
19439.5
18946.6
18333.5
15003.6
15349.6
14830.3
14790.1
13975
14910.3
17753.3
20063.3
20581
18318.5
17801.2
20365.9
15273.8
15001.8
14775
15031
15209.2
15387.5
15265.5
14094.8
14293.2
15998.7
14498.6
13319.4
12354.7
12185.4
12051.2
12364
12276.1
12219.4
12364.9
12344.4
12286.1
12176.9
12095.7
11920.1
13667.3
13300.9
12043.2
11789.2
12292.4
12565.3
12608.6
12456
12389
12177.9
11925.3
11282.5
9965.86
11918.4
12568.2
13502.6
12935.6
12502.7
12423.5
12428.3
12819.7
12214.5
11665.6
12185.4
12436.7
13651.4
13373.7
15308.3
13641.6
13120.9
13948.4
15023.9
14908.3
14006.3
12579.1
10675.1
11657.9
11227.3
11043.9
11001.6
11173.4
11322.7
11005.5
9203.73
7341.16
8829.31
11231.1
11977.2
10495.5
10036.1
8962.35
8283.48
7455.12
6780.1
7000.56
7834.03
9271.76
13174.1
15008.5
15088
9812.18
8989.13
7940.47
7253.79
6667.96
6403.55
5807.52
5076.67
3798.66
3222.06
2447.81
2708.92
6427.66
5477.1
3476.84
2380.82
1653.22
1739.25
2339.35
2848.14
3403.08
4308.38
4825.79
6081.76
11357.4
11548.4
11824.8
11922.8
11831
11723.3
11722.1
11712.6
11716.2
11699.2
11641.7
11577.9
7148.36
7015.82
7032.55
6121.68
9459.44
11466.7
12068.7
12019.7
11985.6
11833.1
11727.8
11675.2
5532.96
1883.9
11338.4
14904
15055
13248
11148.2
10512.1
9804.52
10248.3
11360.3
11596.9
5261.98
4775.96
4747.74
3312.75
4695.92
5666.66
8916.1
12426.1
15985.3
17901
17344.5
17162.6
11474.5
11375
11296.6
11258.2
11274.1
11306.4
11366.8
11445.4
11545.8
11697.4
12241.5
15461.3
11608.8
11495.3
11437.6
11361.9
11246.8
11298.6
11402.9
11688.7
11631.3
11864.2
12216
15292.1
11229.6
10729.7
10660.2
10668.5
10530.3
10337.9
10061.2
10612.7
11744.8
12354.2
13043.1
13909.8
17466
13109.8
12123.6
12942.7
14198.4
13900
14550.7
14526
13746.9
13592.3
13281.2
12939.5
22256
18085.3
17545.4
17433.8
17428.9
17151.4
18294.5
19176.4
19057.1
18801.4
18685.9
18624.8
14534.9
15298
15754.9
15202.9
14765
14960.7
15558.3
16225.8
17800
18568.9
18963.7
18861.4
15245.5
13885.9
12957.1
12426.8
11170.2
10783.6
10337.3
11325.3
13476.3
15459.6
17683.5
18203.5
12277.5
11242.5
10687.5
9660.82
8047.7
7713.23
7972.84
8693.25
10986.2
14157.2
17625.7
18965.9
18675.1
18636.1
18634.7
18638.8
18674.1
18713.4
18743.6
18821.6
18794.7
18895.6
18980.3
18394.6
19058.6
18891.6
18899.1
18813.8
18797.6
18781.6
18861.5
18922.3
18614.2
18601.7
16396.6
19717.5
19062.8
18942.3
19154.1
19037.2
19076.9
19212.3
19373.4
19398.2
19845
20192.5
21903.7
18226.5
21697.2
20976.3
20636.2
19741.3
19434.7
19217.1
19772.8
20836.6
22087.9
22083.7
19503.4
19728
19270.6
18436.6
17674.2
17288.6
17099.5
16865.5
16530.7
16292.7
16035.3
15755.3
15682.2
15553.1
19487.2
19190
18392.4
17673.7
17121.9
16776.7
16270.1
16404.1
15881.9
15846.7
15760.7
15738.4
19024
18494.4
17726.8
17290.2
16954.3
16926.6
16439.1
16549.4
15868.8
15810.7
15723.8
15582.5
19060.4
18664.3
17915.5
17342.7
16893.7
16637.1
16255.8
16376.4
15939.4
15859.1
15799.5
15837.9
15064.5
14981.8
14808.3
14899.1
14899.9
14949.8
15168.3
15323.5
15069.1
14426
14034.9
12557.8
15168.2
14951
14796.1
14885.6
15170.9
15178.4
15263.7
15357.1
15477
15364.6
15372.7
14574.9
14737.6
14921.8
14708
14728.3
15037.3
15168.2
15308.8
15412.1
15488.8
15606.4
15347.1
15366.3
15188.7
15020.8
14765.2
14813.6
15092
15240.8
15358.3
15473.2
15562.9
15649.6
15793
15581.1
11219.6
11787.8
14635.7
15255.3
18235.6
21281.1
20740
17672.8
15641.6
15577
14681.8
12481
14112.7
13962.6
14164.5
15327.5
14231
15518.9
16149.7
17270.4
16402.6
16055.7
14657.6
13256.3
14646.7
14546.3
15558.7
16080.8
16509.5
16933.4
17145.4
17373.3
16865.5
16823.4
15190
13754.1
15379.7
15420.6
15798.4
15995.4
16253.3
16487.1
16759.7
17204.6
17148.5
17006.1
16112.8
14795.4
5171.68
4349.31
2543.16
2086.64
1654.49
1693.36
2101.84
2456.77
2900.46
3086.7
3470.5
3808.29
4076.92
3624.66
2478.61
1923.57
1557.12
1736.27
2137.52
2466.74
2935.04
3208.56
3553.82
3889.83
3011.6
3328.26
2181.1
1820.13
1553.8
1635.58
2007.61
2381.87
2865.76
3086.73
3409.44
3698.05
1570.33
2538.25
2231.83
2084.07
1887.83
1928.16
2123.19
2365.84
2826.22
3053.75
3357.63
3690.26
4332.65
4360.85
4566.91
4228.84
5593.64
5983.25
6817.09
8606.79
10832.8
13829.2
17996.9
21919.9
4165.62
4385.78
4463.61
3897.94
4456.12
4468.35
6670.27
9363.19
12593.7
15037.6
16823.5
19899.4
4089.86
4385.96
4452.41
3902.32
4857.24
4977.64
5553.07
6737.57
10660.8
13320.9
14740.4
16640
4119
4436.17
4369.02
3837.41
4718.09
4831.07
6227.26
7463.05
10012.2
12198.6
12511.8
12363.5
25436.5
20460
17433.9
14546.6
14363.7
14401.2
14311
14205.1
13889.4
13365.9
12861.1
12252.2
19410.9
16164.9
13244.2
13941.2
14119.7
14167.9
14206.3
14067
13799.3
13485.6
13016.8
12500.9
18496.1
15787.4
15085.1
14228.6
14170.7
14195.8
14155.1
13986.7
13738.4
13360.6
12817.2
12151.3
17336
14716.7
14147.5
13987
14075.2
14088
14085.2
13902.7
13679.1
13343.6
12865.6
12291.7
11858.4
11218.6
10820.1
10137.9
8811.65
6741.6
6295.98
7052.08
9420.73
12455.2
16136.8
17915.5
11853.5
11128.4
10699
10193.3
9538.07
8872.68
8947.37
9366.55
11306.9
13142.6
16116.5
16916.3
11622.9
10960.2
10569.4
10195.4
9828.7
8801.16
8904.4
9174.96
11000.4
12407.3
15747.2
15879.2
11690.5
10995.4
10587.2
10308.8
10387.5
10078
10334.5
10525.6
11419.8
12757
15712.8
14781.6
21535.7
21163.9
22280.4
21274.8
20669.3
20044.7
19911.8
20203.7
21075.7
22087.7
22389.1
21031.6
20179.9
19772
19840.1
19478.5
19527.2
19654.4
19712.6
20052.4
20423.3
20664.9
20051.7
19938.6
20470.6
20111.4
20341.2
19869.4
19735.3
19710.2
19693.6
19808.3
20110.5
20645.3
20506
19984.8
20158.2
19221.3
19630.1
19594.4
19655.6
19657.8
19649.4
19721.1
19877
20082.6
19751.2
19604.7
18811.3
18431.5
17603.7
17166.4
16689.5
16621.5
15759.1
16293.2
15922.9
15880.1
15811.2
15865.1
18721.1
18343.8
17535.4
17116.3
16618.9
16294.8
15853
16178
15963.5
15948
15877.4
15989.1
18587.7
18226.5
17405.9
17006.4
16538.2
16415.6
15656.8
16217.9
15963.8
15942.4
15928.8
16117.8
18511.2
18110.8
17339.3
16922.8
16448.6
16447.3
16178.8
16056.6
16072.4
16013.8
16102.2
16277.1
18423.2
18008.2
17243.7
16762.8
16439.7
16381.6
16372.4
16214.4
16102.7
16143.2
16258.1
16342.9
18395.1
17908.2
17242.7
16591
16408.2
16375.8
16355.8
16352.1
16211
16300.7
16338.4
16358.2
18342.1
17841.7
17189.3
16456
16387
16355.5
16346.4
16338.5
16314.4
16328.9
16346.6
16355.2
18361.2
17762
17272.8
16298.3
16376.1
16345.8
16336.6
16338.9
16343.4
16338.5
16347.6
16355.7
18352.7
17741.7
17271.4
16243.3
16371.3
16340.1
16331.1
16340.3
16363.1
16347.8
16349.2
16353.1
18408.9
17697.8
17560.8
16157.8
16371.1
16340.1
16332.4
16349.3
16375.9
16356.2
16351.4
16355.1
18428.7
17772.1
17686.3
16197.4
16369.4
16341.3
16332.9
16357
16379.8
16360.2
16352.2
16355.4
18497.7
17816.9
18454.1
16205.1
16369.6
16343.7
16335.5
16362.4
16379.1
16361
16354
16357.6
14931.8
14982.5
14703.8
14738.1
14992.7
15284.9
15417.6
15528
15644.9
15752.5
15952.2
15926.7
15274.8
15130.7
14939.9
15048
15120.7
15424.4
15511.8
15608.9
15695.7
15785.6
15970.5
16169.9
15271.8
15155.3
15125.2
14924.4
15242.9
15545.7
15575.8
15652.6
15751.2
15846.3
16004.3
16167.8
15425.8
15430.5
15387.7
15294.2
15470.2
15618.5
15670.6
15719.9
15771
15867.3
16011.5
16196.1
15461.2
15432.9
15405.5
15384.2
15638.3
15677.2
15673.5
15737.7
15813.8
15917.1
16047.8
16231.4
15537.1
15546
15448.7
15589.6
15690.9
15638.9
15714.9
15763.8
15837.4
15939.8
16064.3
16232.5
15556.3
15495.1
15533.9
15585.4
15664.5
15670
15694
15764.6
15861.9
15963.5
16078.4
16219.6
15573.8
15508.9
15572.3
15594
15659.2
15642.5
15717
15795.6
15881.4
15989.3
16098.8
16238.7
15590.5
15485.4
15574.3
15592.9
15652
15658.1
15713.1
15748.6
15878
15990.5
16109.2
16241.3
15601.5
15497.7
15582.1
15593.8
15651.2
15665.8
15733.9
15788.6
15924.3
16001
16103.4
16254.8
15663.3
15517.6
15584.2
15597.7
15651.4
15665.7
15730.9
15769.3
15898.7
16036.1
16126.9
16238.5
15712.5
15567.9
15593.1
15625.4
15692.5
15733
15811.8
15885
15989.8
16120.6
16272.5
16402.1
15413.1
15417
15727.2
16169.1
16407.7
16704.1
16986.9
17366.6
17493.2
17730.6
17536.8
16812.7
15914.5
15975.8
16124.6
16245.9
16420.1
16637.6
16904.7
17245.3
17559.2
17928.6
17787.9
17615.8
16123.8
16118.1
16223.7
16348
16521
16737.9
17019.7
17388.4
17811.8
18359.1
18450.5
18161.3
16240.3
16285.5
16345.7
16410
16550.8
16729.1
16973.3
17315.4
17812.5
18413.8
18518.4
18598.2
16292.6
16317.7
16399.9
16467.1
16617.3
16770.6
17028.3
17393.6
17953.3
18562.6
18824.1
18766.3
16297.4
16359.8
16420.9
16501.7
16606.6
16757.8
16998.8
17372
17956.8
18532.3
18836.9
19043
16284.3
16356.6
16430.1
16513.7
16629.6
16754.7
16999.9
17405.2
18024.3
18534.9
18929.3
19224.6
16304.8
16382.3
16451
16533.8
16640.1
16773.7
17016
17423.1
18038.1
18538.8
18952.2
19381.1
16306.2
16399.6
16464.9
16537.8
16633.1
16758.9
16999
17437.6
18076.2
18602.6
19009.9
19538.2
16343.4
16434.5
16493.5
16559
16654.4
16794
17029
17507
18132.8
18725.1
19076.6
19634.5
16312.5
16440.9
16482.8
16539.4
16610.7
16737
17007.7
17511.3
18188.1
18741.3
19105.9
19744.1
16449.8
16496
16555.4
16665.4
16785.1
16968.4
17236.8
17880.1
18334.6
18800.6
19171.1
19798.8
2479.07
2511.94
2157.91
2015.39
1832.99
1770.24
2182.41
2443.87
2871.7
3054.06
3262.61
3513.24
1747.17
2266.7
2145.22
2120.29
2108.71
2144.3
2285.7
2322.5
2715.54
2837.1
2972.64
3435.84
2113.79
2226.66
2153.3
2129.78
2094.44
2065.68
2172
2255.92
2583.88
2560.5
2799.65
3206.81
1844.5
2206.96
2156.07
2138.12
2112.09
2100.68
2183.73
2221.51
2501.4
2404.58
2568.2
3064.95
2056.64
2206.42
2161.46
2141.96
2112.8
2099.32
2183.09
2217.7
2497.93
2276.91
2466.61
2901.82
2066.97
2204.45
2167.36
2147.04
2112.19
2086.75
2183.5
2207.71
2421.98
2219.88
2424.47
2786.16
2264.37
2205.82
2171.77
2150.63
2099.86
2069.56
2186.21
2250.2
2546.93
2228.61
2408.26
2764.85
2368.34
2241.95
2185.28
2164.6
2103.2
2045.36
2191.34
2377.73
2882.68
2253.83
2378.71
2698.24
2652.53
2266.18
2197.92
2171.64
2125.13
2072.97
2337.8
2536.85
3308.46
2430.43
2333.04
2529.21
2835.05
2364.11
2217.82
2186.96
2130.26
2088.13
2620.26
2797.99
3721.09
2690.91
2322.5
2326.56
3273.82
2311.05
2182.92
2178.63
2148.27
2077.94
2764.26
3077.86
4149.32
3346.68
2411.3
2066.92
3651.04
2688.92
2346.15
2304.71
2141.8
2159.51
3303.51
3400.61
4619.68
3748.55
2262.03
1818.45
4066.36
4513.34
4238.06
3858.07
4812.55
4950.75
5990.7
7338.09
9529.46
10881.5
11819.3
11905.4
4022.67
4408
4155.54
3974.46
4881.91
5179.29
6508.85
7924.35
9853.74
10672.1
10702.4
11127.6
3838.42
4210.06
4108.9
4261.75
4914.14
5328.64
6548.09
8271.91
10127.5
10979.5
10621.1
11123.2
3724.99
4076.89
4178.19
4450.4
5172.31
5662.69
7209.68
8850.05
10465.4
11087.5
10496.8
11180
3475.97
4097.21
4452.58
4828.65
5401.23
5958.1
7258.1
8997.85
10512.7
11117.1
10603.7
11310.6
3499.37
4069.48
4367.31
4811.72
5776.27
6385.09
7861.67
9430.63
10739.1
11241.5
10819.2
11346.1
3172.7
4046.18
4326.01
5201.13
6026.91
6823.07
8285.85
9744.1
10679
11147.5
10989.6
11386.7
2880.7
3760.87
4437.46
5011.18
6429.33
7511.18
8898
10181.3
11241.8
11704.6
11331.7
11510.4
2697.34
3552.25
3245.33
5272.05
7068.67
8396.17
9651.6
11138.7
11988.7
12125.8
11634.2
11745.7
2383.74
2842.51
2490.01
6115.42
7484.8
9013.84
10420.8
11778.9
12311.5
12387.5
11847.3
11902.6
2099.19
1908.21
926.134
5888.1
7745.93
9331.87
10788.5
12166.1
12514
12566.9
11972.2
12063.6
1561.18
1594.07
-2648.79
5724.11
8079.17
9725.85
11260.3
12468.2
12701.2
12656.5
12018.9
12188.6
16743.7
14457.1
14293.5
14083.3
14099.2
14097.7
14039.4
13894.7
13644.7
13246.1
12664.5
12141.3
16580
14211.8
14071
13940.4
14009.2
13968.1
13945.4
13763.8
13525
13135.2
12681.9
12223.9
16762.5
14243.7
14143.8
14008.1
14034.2
14008.6
13952.6
13806.9
13540.8
13159.3
12670.9
12225.6
17223.6
14304
14084.9
13883.3
13937.6
13833.6
13811.7
13622.3
13335.5
12904.2
12674.6
12310.6
17919.2
14570
14180.5
13956.2
13977.7
13920.5
13854.8
13707.1
13424.7
13090
12823.9
12424.8
18817
14991.1
14221.9
13849.9
13854
13724.3
13715.7
13511.8
13253.6
12899.8
12810.5
12493.4
19570.2
16081.2
14224.7
13981.1
13911.6
13858.6
13806.9
13673.3
13471.9
13216.1
13052.6
12698.2
20079.7
17088.8
14458.5
13754.6
13830.7
13667.5
13639.4
13434.7
13251.7
12955.3
12849.9
12671.2
20097.9
17444.8
15571.7
14045.5
13959.6
13898.8
13835.5
13714.2
13564.2
13268.5
13166.2
12919.5
19446.2
17188.6
16210.7
15300.7
14060.3
13391.1
13374.5
13230.6
13079.5
12771.3
12682.3
12578.1
18894.5
16797.2
17073.8
16324.3
15624
14913.2
14429.6
14090.2
14050.1
13703.8
13445.8
13268.7
19174.1
17028.6
17138.3
16727.2
16000.4
15378.8
14817.7
14429.5
13949.5
13751.7
13597.9
13647.4
11582.3
10990
10526.9
10224.5
10382.5
10149.5
10484.2
10793.7
11744.8
11993.2
14831.3
11150.9
11662.5
11104.9
10598.7
10403
10722.3
10734.4
11116.3
11331.4
12092.3
12369.7
15038.3
14652.9
11681.8
11174.2
10677.3
10537.2
10697.4
10905.8
11293.4
11464.8
12238.7
12293.7
13865.1
13349.3
11810.1
11348.6
10896.5
10830.5
11084.3
11354.7
11741.8
11797.4
12633.1
12563.6
14357.7
14324.2
11936.5
11439.5
10955.9
10902.1
11234.8
11557.9
11907.1
12023.8
12740.6
12434.5
13943.3
13568.7
12058.7
11614.8
11128.2
11239.2
11708.3
12116.6
12329.1
12499.8
13105.4
12514.9
13950.7
13814.6
12297.8
11780.7
11245.7
11472.4
11759.7
12168.7
12537.9
12632.6
13186.6
12637.9
13327
13306.5
12318.9
12004.4
11623.6
11944.9
12378.9
13069
13413.8
13765.1
13608.6
12964.6
13480.2
13531.6
12617.7
12184.6
11812.2
12245.6
12658.6
13019.8
13543.3
13961.7
13267.3
12687.5
13181.6
13448.9
12376.9
12233
12003.4
12485.3
13261.5
14658.8
15519.1
15802.4
13997.1
12847.6
13362.1
13713.5
12885.8
12313.6
12064.6
12804.8
13035.5
13770.8
14296.6
14788.5
13845.4
12860.5
13360.7
13904.2
14075
14341.8
15114.9
16160.4
17488.4
19460.3
19882.2
18047.7
14921.2
13033.5
13778.8
14164.4
21994.9
19938.4
19689.6
19610.7
19656.6
19665.3
19649.4
19642.4
19718
19902.7
19710
19478.9
20392.8
19640.9
19574.8
19549.1
19610.2
19631.9
19625.8
19607.7
19624.7
19691.7
19459
19288.7
20591.6
19702.7
19585.2
19546.2
19609.7
19630.9
19635
19596.9
19587.5
19557.7
19328.8
19138.6
20153.1
19546
19555
19515.4
19591.8
19603.7
19624.2
19584.2
19577
19454.8
19224.1
19038.9
20112.4
19608.4
19572.8
19523.5
19618.4
19614.3
19630.5
19601.1
19581.4
19400.1
19125.4
18924
20115.9
19599.5
19565.5
19526.2
19603.2
19613.3
19621.8
19597.8
19576.4
19385.6
19088.1
18867.7
20140.7
19654.8
19598.5
19565.8
19629.2
19625.8
19626.4
19616.6
19582.5
19391.7
19021.2
18805.4
20261.7
19662.3
19605
19577.8
19642.7
19638.3
19623.4
19623.4
19548.3
19448
19010.8
18776.4
20630.9
19779.4
19645.6
19608.5
19648.3
19639.2
19626.3
19634.6
19529.8
19519.1
18960.1
18746.3
20747.1
19922.5
19692.4
19629.3
19667.1
19647.2
19625.5
19646.5
19498.5
19558.5
18976.7
18733.6
20879.9
19951.8
19702.3
19622.6
19639
19631.7
19623.3
19642.8
19473.5
19424.4
18929.6
18713.9
20848.8
20024
19756.9
19655.2
19690.8
19666.7
19645.5
19664
19438.6
19583.1
18957.9
18715.5
18504.3
18577.5
18569.1
18618
18602.2
18639
18620.4
18649.5
18631.9
18651.9
18640.1
18652.6
18645
18652.7
18647.9
18652.3
18649.6
18651.8
18650.7
18651.2
18054.4
18226.6
18326.5
18426.6
18476.8
18533.2
18560
18592.8
18604.2
18625.4
18627.7
18640.9
18639.7
18647.8
18645.8
18650.5
18648.8
18651.2
18650.4
18650.9
18273.2
18434.1
18403.6
18472.4
18493.2
18535.2
18554.3
18586.5
18595.4
18619.4
18621.9
18637.1
18636.9
18645.6
18644.6
18649.4
18648.4
18650.7
18650.2
18650.9
19220.6
19196
18999.7
18948.9
18855.2
18811.7
18759.9
18735.9
18702.6
18693.9
18673.8
18671.7
18660.3
18660.6
18654.3
18655.4
18652.1
18653
18651.6
18652.1
18889.6
18897.4
18814.4
18819.7
18750.6
18758.2
18704.1
18712.2
18678.3
18683.5
18663.9
18667.2
18656.1
18658.7
18652.6
18654.6
18651.4
18652.7
18651.4
18651.8
18700.6
18700.3
18686.7
18685.5
18673.8
18674.2
18662.8
18667.6
18655
18662.8
18649.8
18658.8
18648.8
18655.6
18649.4
18653.5
18650.3
18652.3
18651
18651.5
3990.19
2289.93
1688.49
866.228
255.983
-285.84
-541.523
-424.38
-254.092
-281.629
-321.654
-329.857
-126.169
-163.809
-472.08
-116.252
89.1315
67.0943
35.4561
11.6143
1680.58
553.469
-361.421
-573.832
-960.772
-1083.74
-1090.35
-785.763
-734.642
-779.434
-700.972
-731.3
-400.588
-921.495
-768.809
-227.138
-10.1655
76.0076
-31.1193
34.4165
1506.19
1257.26
494.982
-69.3027
-1370.39
-2463.56
-1947.54
-1428.45
-1003.3
-360.769
-500.83
32.1449
-365.143
-51.9793
-432.621
-136.9
14.2502
98.3571
61.4115
17.0161
257.835
-94.9242
-1404.79
-1380.48
-3146.71
-2971.5
-1882.86
-1105.32
-1176.99
-1284.55
-787.751
-124.659
-399.191
-522.843
-374.544
-154.787
261.346
248.004
13.556
-10.022
1413.81
-733.867
-4021.97
-3138.54
-4500.07
-3950.88
-4705.86
-3491.35
-2905.62
-1837.55
-1314.74
-341.869
-216.524
201.835
-237.345
417.828
41.1773
195.871
-13.531
-55.9563
-7141.61
-1256.31
-3971.35
-2480.82
-3999.64
-3223.18
-3527.44
-2745.77
-2432.35
-1730.87
-1035.41
-300.355
-96.6783
49.7209
58.7778
150.808
194.237
167.54
106.67
-53.7607
)
;

boundaryField
{
    rotor
    {
        type            calculated;
        value           nonuniform List<scalar> 
192
(
18546.3
18546.9
18548.4
18548.9
18549.1
18549.8
18554
18549.4
18544.5
18548.4
18556.3
18567.7
18586.7
18597.7
18606
18604.9
18581.1
18547.2
18489.9
18484.3
18495.9
18534.8
18567.8
18591.2
11543.6
11539.8
11532.3
11516.9
11498.3
11480.2
11467.5
11461
11458.7
11448.6
11400.3
11342.1
11286.7
11246.4
11233.4
11244.4
11276.5
11326.6
11382.4
11434.8
11464.8
11482.2
11461.9
11458.5
11110.4
11086.8
11063.2
11034.5
11023.7
11032.7
11058.5
11083.1
11108.5
11119.2
11193
11197.3
11064.2
10871.9
10743.7
10679.5
10672.9
10728
10850.1
11008.6
11218.2
11446.1
11976.6
12128.5
18057.4
18048.6
18043.5
18032.4
18027.1
18027.8
18026.1
18030.5
18028.6
18034.8
18038.7
18043.4
18058.9
18060.6
18049.8
18044.4
18045.4
18056
18069.2
18096.3
18102
18113.1
18096.7
18092.3
18546.3
18591.9
18590.4
18625.8
18623.2
18653.3
18677.3
18729.5
18763.6
18883.9
18894.4
19054.9
18092.3
18107.2
18122.5
18149
18173.2
18196.7
18243.8
18257.1
18319.2
18301.1
18408.2
18332.5
11543.6
11579.7
11606.7
11661.2
11693.8
11743.8
11778.7
11819.3
11870
11886.7
12003.2
11949.3
18591.2
18585.4
18528.2
18524.4
18586.4
18658.3
18812.2
19015.2
19119
19221.1
19143.3
19089.6
11110.4
11098
11062
11042.7
11056.5
11110.1
11180.9
11254.4
11347.1
11328.4
11434.6
11305
11458.5
11478.9
11474.7
11538.6
11536.2
11560
11686.5
11823.5
12091.6
12575.4
12608.4
12961.1
18057.4
18079.5
18092.4
18133.6
18165.6
18203.5
18235.1
18276.4
18306
18348.5
18397.4
18336.4
12128.5
11587.6
11003
10711.4
10621.4
10523.7
10568
10764.8
10976.7
11675.5
12197.8
15690
)
;
    }
    stator
    {
        type            calculated;
        value           nonuniform List<scalar> 
260
(
16205.1
16369.6
16343.7
16335.5
16362.4
16379.1
16361
16354
16357.6
15712.5
15567.9
15593.1
15625.4
15692.5
15733
15811.8
15885
15989.8
16120.6
16272.5
16402.1
16449.8
16496
16555.4
16665.4
16785.1
16968.4
17236.8
17880.1
18334.6
18800.6
19171.1
19798.8
3651.04
2688.92
2346.15
2304.71
2141.8
2159.51
3303.51
3400.61
4619.68
5724.11
8079.17
9725.85
11260.3
12468.2
12701.2
12656.5
12018.9
12188.6
19174.1
17028.6
17138.3
16727.2
16000.4
15378.8
14817.7
14429.5
13949.5
13751.7
13597.9
13647.4
14075
14341.8
15114.9
16160.4
17488.4
19460.3
19882.2
18047.7
14921.2
13033.5
13778.8
14164.4
20848.8
20024
19756.9
19655.2
19690.8
19666.7
19645.5
19664
19438.6
14931.8
15274.8
15271.8
15425.8
15461.2
15537.1
15556.3
15573.8
15590.5
15601.5
15663.3
15712.5
15865.1
15989.1
16117.8
16277.1
16342.9
16358.2
16355.2
16355.7
16353.1
16355.1
16355.4
16357.6
2479.07
1747.17
2113.79
1844.5
2056.64
2066.97
2264.37
2368.34
2652.53
2835.05
3273.82
3651.04
16812.7
17615.8
18161.3
18598.2
18766.3
19043
19224.6
19381.1
19538.2
19634.5
19744.1
19798.8
16743.7
16580
16762.5
17223.6
17919.2
18817
19570.2
20079.7
20097.9
19446.2
18894.5
19174.1
11905.4
11127.6
11123.2
11180
11310.6
11346.1
11386.7
11510.4
11745.7
11902.6
12063.6
12188.6
21994.9
20392.8
20591.6
20153.1
20112.4
20115.9
20140.7
20261.7
20630.9
20747.1
20879.9
20848.8