/*--------------------------------*- C++ -*----------------------------------*\
| =========                 |                                                 |
| \\      /  F ield         | OpenFOAM: The Open Source CFD Toolbox           |
|  \\    /   O peration     | Version:  2212                                  |
|   \\  /    A nd           | Website:  www.openfoam.com                      |
|    \\/     M anipulation  |                                                 |
\*---------------------------------------------------------------------------*/
FoamFile
{
    version     2.0;
    format      ascii;
    arch        "LSB;label=32;scalar=64";
    class       volScalarField;
    location    "1.5";
    object      p_rgh;
}
// * * * * * * * * * * * * * * * * * * * * * * * * * * * * * * * * * * * * * //

dimensions      [1 -1 -2 0 0 0 0];

internalField   nonuniform List<scalar> 
3312
(
16062.4
16056.4
16050.4
16043.1
16041.6
16040.1
16040.2
16044
16053.4
16069
16087.2
16117.3
16086.4
16067.7
16056.6
16045.7
16043.6
16041.8
16035.5
16039.8
16050.6
16063.5
16072.6
16129.6
16093.5
16065.5
16055.1
16042.8
16046.4
16054
16052.8
16059.3
16073.7
16088.7
16098
16090.9
16112.2
16071.9
16058.1
16044.3
16053.8
16067.2
16076
16085.2
16098.9
16120.6
16129.5
16103.9
16126.5
16077.8
16056.1
16040.9
16056.9
16083.5
16104.3
16118.7
16132.7
16156.6
16157.7
16137.1
16160.5
16105.1
16076.4
16055.4
16074
16112.1
16141.1
16159.2
16177.8
16208
16220.6
16202.5
16201.6
16147.7
16114.3
16085.7
16105.4
16150.6
16189.9
16217.6
16247.7
16283.4
16302
16283.9
16264
16217.5
16182.5
16150.5
16163.5
16207.9
16250.3
16285.1
16319.2
16356.9
16377.4
16365.7
16311.8
16282.9
16256.2
16227.3
16239.1
16279.3
16324.8
16362.1
16398.9
16439.1
16455.8
16442.2
16370.3
16360.3
16346.5
16331.6
16341.3
16372
16412.5
16449.5
16477.1
16509.1
16525.8
16507.2
16395.8
16403.5
16405.4
16413.2
16436.9
16479.2
16531.5
16598
16643.8
16617.6
16562.9
16493.1
16452.5
16500.7
16545
16580
16680.1
16778.5
16855.6
16948.6
17020.5
17039.1
17018.8
16702.9
16081.4
15993.4
15910.9
15869.4
15869.1
15901.9
15960.7
16016.7
16058.6
16042.2
16000.3
15971.8
16145.1
16103.9
16059.2
16016.4
16001.3
16002.2
16030
16049.8
16056
16009.5
15928.2
15907.8
16066.1
16021.9
15992.8
15967.1
15960.3
15960.7
15974.7
15985.4
15982.1
15929
15824.4
15823.4
16068.4
16025.4
15992
15962.1
15944.7
15934.2
15940.5
15954.9
15961.3
15881.7
15739.9
15726.6
16093.7
16039.5
15996.2
15954.7
15926.3
15911
15916.6
15950.8
15979.8
15891.2
15856.9
15485.5
16159
16097
16038.2
15978
15932.1
15906.1
15913.8
15972.6
16032.3
16003.9
15933.8
14382.9
16240.4
16172.6
16102.6
16033.9
15976.3
15964.3
15982.8
16075.2
16159.9
16230.8
16067.2
12956.4
16323.6
16256.8
16177.7
16109
16047.5
16042.8
16076
16199.4
16320.2
16448.7
16795.9
11412.1
16403.3
16334.3
16258.8
16187.1
16135.6
16139.2
16198.5
16340.4
16492.8
16663.2
17182.7
12654.3
16465.6
16388.9
16313.1
16246.5
16203.8
16207.1
16276.7
16420.3
16597.8
16870.1
18089
21595.3
16492.1
16428.2
16350.1
16288.5
16243.9
16249.8
16323.1
16474.7
16713.3
17273.9
20160.4
32267.4
16387.4
16381.7
16336.3
16309
16274.5
16136.1
16116.4
16238
17013.8
19783.9
28723.7
61407.3
6110.32
6097.64
6090.58
6082.05
6090.76
6098.98
6111.13
6119.58
6125.76
6128.9
6148.15
6171.8
6124.18
6095.61
6083.33
6071.36
6086.64
6106.67
6131.43
6151.61
6162.37
6174.74
6170.87
6197.77
6106.35
6053.67
6039.63
6019.13
6043.99
6072.55
6108.69
6139.72
6160.65
6178.14
6185.23
6163.45
6096.36
6017.46
5995.51
5970.99
6003.27
6044.13
6096.38
6134.19
6169.52
6191.9
6198.83
6154.5
6084.52
5985.6
5951.42
5932.22
5968.94
6022.73
6082.94
6129.08
6167.73
6188.55
6203.76
6171.09
6137.33
6039.8
6010.41
5991.75
6021.17
6066.57
6122.33
6164.21
6204.03
6231.45
6250.05
6233.94
6213.14
6135.36
6113.78
6093.25
6114.03
6145.64
6187.97
6222.21
6255.16
6273.69
6285.69
6284.8
6290.81
6216.82
6196.68
6174.68
6185.15
6201.98
6236
6263.54
6288.17
6300.76
6317.46
6329.12
6377.81
6312.54
6294.05
6266.72
6262.54
6265.92
6296.88
6333.89
6364.63
6370.49
6364.44
6360.64
6470.74
6411.73
6395.33
6386.06
6390.16
6393.72
6421.95
6450.36
6460.53
6438.46
6406.68
6343.43
6555.43
6534.57
6499.7
6499.23
6523.21
6533.43
6562.06
6587.81
6582.66
6527.37
6436.23
6242.79
6669.46
6836.61
6888.8
6948.12
6920.84
6889.01
6970.97
7046.9
7020.28
6806.12
6416.13
5615.42
6138.91
6069.76
6005.7
6017.61
6101.85
6240.52
6404.93
6535.94
6581.4
6500.59
6394.41
6479.31
6217.76
6172.03
6130.86
6120.9
6163.42
6241.72
6335.27
6397.62
6386.64
6241.4
6140.2
6228.58
6129.69
6054
6010.43
6003.54
6061
6139.42
6239.76
6326.02
6377.06
6414.35
6411.23
6390.34
6082.96
5980.11
5884.98
5843.18
5913.22
6011.83
6160.18
6278.51
6348.85
6420.1
6409.72
6427.99
6091.2
5971.51
5860.9
5805.73
5902.71
6033.33
6169.75
6269.1
6349.5
6388.21
6343.93
6492.41
6184.09
6105.59
6028.86
5976.14
6070.56
6172.89
6279.14
6367.97
6414.85
6402.6
6315.2
6454.44
6282.12
6246.67
6205.25
6180.53
6240.41
6308.46
6410.26
6476.88
6522.06
6447.91
6169.26
6442.61
6360.4
6356.4
6330.71
6308.6
6344.6
6419.02
6529.92
6623.23
6702.47
6633
6153.78
6384.45
6395.55
6409.52
6373.35
6362.69
6386.25
6470.03
6603.12
6723.81
6934.61
7000.57
6710.94
7544.05
6346.16
6440.95
6393.93
6326.67
6265.79
6505.63
6677.74
6970.98
7346.79
7480.94
7819.37
8653.57
5796.8
5461.27
5638.14
5837.7
6085.05
6040.93
6339.78
6801.1
7380.01
7860.1
8540.18
9367.64
5381.68
5447.29
5299.39
5214.17
5338.91
5722.19
6284.57
7007.23
7775.64
8212.28
9303.67
10634.9
6114.55
6054.37
5995.22
5911.88
5840.27
5773.75
5737.2
5735.77
5766.97
5823.12
5887.07
5944.12
6026.05
5938.67
5893.11
5810.94
5744.11
5683.26
5652.27
5650.8
5688.36
5760.7
5848.66
5931.42
5960.89
5859.04
5822.51
5739.59
5675.02
5617.32
5593.98
5589.27
5628.44
5692.86
5784.96
5877.38
5938.08
5843.04
5805.03
5728.26
5679.46
5636.51
5618.21
5623.56
5664.33
5719.67
5811.22
5906.63
5954.23
5861.09
5820.26
5727.45
5653.01
5579.59
5570.8
5615.61
5689.11
5760.38
5854.81
5946.2
5990.41
5885.65
5823.69
5705.6
5569.35
5428.37
5377.69
5495.95
5667.94
5777.1
5903.74
5998.54
6061.91
5949.5
5865.69
5691.86
5443.32
5151.12
5025.13
5284.97
5607.09
5786.96
5971.3
6082.8
6156.48
6043.3
5939.69
5718.3
5315.97
4744.7
4389.95
5022.77
5614.58
5875.49
6085.54
6173.54
6294.59
6196.14
6105.07
5867.92
5454.83
4673.71
4078.68
5100.77
5694.47
5996.96
6222.44
6321.81
6392.37
6319.32
6266.73
6107.88
5759.59
5139.15
4875.24
5477.09
5984.99
6232.4
6399.9
6461.43
6482.39
6461.69
6448.69
6322.06
6063.65
5573.29
5432.53
5945.29
6376.32
6538.97
6658.11
6680.17
6529.7
6502.89
6614.26
6601.75
6390.03
5848.63
5683.67
6413.94
6796.99
6875.02
6928.93
6892.91
5985.69
6011.26
6026.87
6033.14
6037.19
6034.4
6029.69
6021.31
5985.03
5858.98
5837.37
5817.47
5994.68
6029.72
6053.16
6063.9
6074.05
6073.94
6069.97
6077.28
6090.27
6106.45
6092.49
6148.6
5950.98
6006.66
6038.31
6059.02
6070.06
6075.73
6077.14
6085.21
6082.82
6102.46
6100.19
6126.12
5983.13
6037.46
6080.52
6100.22
6112.2
6113.44
6113.26
6114.41
6129.02
6158.12
6182.33
6210.2
6025.74
6080.26
6116.96
6136.22
6129.54
6108.86
6079.26
6058.3
6095.81
6160.58
6177.23
6236.67
6084.76
6142.08
6163.9
6186.89
6194.6
6172.76
6061.55
5995.04
6046.59
6124.61
6112.12
6304.85
6176.1
6211.76
6250.21
6275.75
6248.97
6221.69
6025.17
5989.59
5979.92
6223.76
6137.81
7106.23
6246.99
6290.93
6335.72
6365.76
6360.29
6433.41
6367.18
6094.43
6073.13
5879.56
5781.67
8782.7
6397.22
6418.4
6461.71
6472.18
6409.78
6501.32
6387.46
6011.12
5829.84
4433.26
6191.16
10302.2
6537.95
6559.49
6543.71
6537.58
6499.16
6480.95
6472.94
6251.8
5559.76
3913.05
7540.72
10527.1
6718.76
6728.46
6662.77
6576.51
6558.23
6655.76
6684.54
6566.71
6452.06
7359.87
8360.33
12991.9
6908.92
6881.77
6793.21
6688.34
6695.67
6765.97
6885.09
7058.55
7320.45
8095.56
8929.51
11772.8
10042.6
10045
10046.5
10050.3
10053.6
10060.2
10068.2
10077.8
10088.9
10102.4
10114.9
10134
10077.7
10076.7
10077.8
10078.7
10082
10088.4
10098.5
10111.3
10128.2
10148.7
10171
10179.9
10086.7
10088
10088.5
10089.7
10093.7
10100.7
10113.5
10129.8
10147.3
10173
10199.9
10230.3
10118.3
10115.8
10112.6
10107.8
10107.6
10114.3
10130.1
10153.5
10178.6
10209.1
10246.4
10276.6
10138.5
10134.5
10127.5
10116.3
10108.9
10111.4
10132.3
10165.1
10200.2
10238
10290.3
10322.2
10181.9
10176.2
10159.5
10134.8
10108.5
10101
10121.4
10170.6
10225.2
10268
10337.2
10367.3
10217.5
10211.2
10181.8
10136.3
10080.3
10061
10104.7
10196.7
10287.3
10348.9
10415.7
10437.1
10284.2
10279.1
10251.1
10195.7
10120.3
10084
10155.3
10305.1
10415.3
10488.4
10547.6
10571.7
10342
10355.9
10341.6
10311
10259.6
10262.1
10350.7
10522.9
10632.5
10677
10692.7
10703.9
10417.7
10442.1
10460.8
10489.7
10508.8
10527.9
10599
10757.2
10818.3
10821.9
10813.9
10787.7
10465.7
10509.2
10532.5
10557.9
10573.2
10631.7
10814.6
11121.4
11214.3
11070.7
10930.5
10860
10544
10617.9
10669.5
10750.8
10770.8
10771.1
10850.9
11137.5
11150.9
10966.8
10885.9
10920.9
10161.2
10178.5
10194.8
10212.7
10238.8
10270.2
10292.9
10314.6
10294.8
10274
10270
10282.8
10217
10257.9
10277.1
10292.4
10307.8
10318.5
10327.7
10328.1
10289.4
10278
10247.8
10289.7
10245.9
10268.2
10283.4
10302.6
10324.3
10340
10345.6
10341.9
10319.1
10299
10280.7
10310
10296.8
10311.8
10322
10338.4
10358.4
10374
10379.1
10370.6
10335
10306.7
10267.5
10364.3
10337.9
10332.6
10330.4
10347.3
10375.4
10394.8
10395.6
10379.6
10331
10272
10205.9
10711.5
10398.8
10399.7
10402.4
10421.2
10451.1
10477.7
10461.4
10419.2
10315.2
10172.7
10091.5
10914.4
10489.1
10495.9
10506.4
10527
10551
10575.6
10570
10538.6
10375.6
10057.2
9400.31
11326.7
10576.6
10592
10606.3
10635
10665.5
10699.5
10722.6
10702.4
10602.9
10453.6
9525.61
12260.1
10705.7
10685.6
10684.3
10724
10755.4
10798.8
10844.8
10890.5
10919.5
11056
11566.2
12912.8
10777.5
10772
10770.4
10809.7
10836.3
10889.3
10954.1
11048.7
11215.3
11581.3
12383.5
13556
10856.6
10893.4
10808.7
10860
10924.8
10978.9
11086.2
11316.5
11729.9
12327.9
12867
13451.6
10943
11021.2
11062.1
10990.7
11076
11221.7
11515.4
11780
12220.5
12622.2
13159.1
13615.1
16452.6
16357.1
16531.8
16709.4
16778.8
16775
16828.7
17046.6
17166.8
17182.6
16782.9
16561.6
17888.9
17991.7
17407.7
16947.5
16885.2
16830.6
16714.3
16623.7
16610.4
16648.4
16701.9
16337.5
14984.2
15459.7
16299.4
16498.7
16702.5
16646.6
16581.3
16352.7
16032.4
15311.2
14656.4
13838
17568.8
17132.8
16421
15558.3
14808.4
14085.6
13627.5
13438.6
13687.6
14055.3
14043.7
14433.2
16274
15628.7
16682.5
16309.4
16513.2
16719.5
16660.3
17228.6
18215.1
19085.1
29187.6
43735.2
16419.7
14830.5
13884.8
12750.7
12621.2
12269.5
12062
12004.5
12632.2
13846.5
16937.7
19626.2
13344.3
14126.3
15067.4
14724.3
13940.4
12952.6
12134.2
12372.2
12704.1
12501.6
13373.8
12703.9
12315.9
10941.8
11117
11711.8
11797.2
11099.1
10871.2
11225.8
11609
11839.7
12318.1
12844.1
12680.4
8679.94
6874.6
6320.94
6638.94
6631.13
6524.96
6153.63
6227.65
5282.75
4599.14
4418.37
11246.9
11157.4
11344.6
11825.1
11358.8
10976
11101.3
11218.9
11075.6
10065
6355.53
4232.7
10076.5
10620.6
10871.4
11214.4
11201.3
11058.9
10494.5
9816.12
9546.5
8551.31
6876.06
5001.92
12881.1
13603.1
13653.9
14071.7
12923.3
11894.9
11779.9
11684.2
11683.5
10665.5
7889.59
4881.69
3394.93
2840.89
2633.84
2911.21
3358.92
3942.63
4992.94
5647.6
6837.98
7819.65
8583.79
10073
1988.63
1666.75
1185.43
1168.34
1452.67
1743.61
2521.35
3861.2
5143.54
6394.88
7748.76
8541.91
2007.34
1531.6
1082.54
948.577
1084.69
1476.71
2249.27
3241.69
3963.73
5151.36
5912.09
6615.32
1095.63
-158.331
-415.005
-276.01
-139.904
-27.9326
730.621
1775.12
2154.47
3147.24
3527.29
4887.27
6814.75
6936.11
7126.85
6924.24
6702.13
5775.24
5450.55
6543.91
7172.63
7345.08
7269.92
7152.15
6203.01
6124.93
6469.44
6935.79
6643.23
4752.13
4737.15
6768.43
7452.3
7540.42
7525.53
7315.23
5583.63
6409.58
6934.54
6658.72
6530.64
6008.9
4863.84
6369.94
7454.81
7681.65
7671.79
7517.16
4128.82
4279.31
5226.4
6411.9
7097.89
7488.03
6809.51
6380.11
7490.26
7764.76
7706.76
7668.76
7069.87
7018.12
6861.5
6776.38
6773.73
6835.33
6972.97
7147.22
7517.22
8427.59
9685.42
11041.4
7227.07
7201.8
7033.87
6858.38
6795.4
6864.61
6965.97
7135.02
7493.83
8235.3
9127.56
10847.7
7212.57
6918.49
6845.88
7048.66
6877.71
6855.79
6955.1
7223.19
7588.89
8361.61
9602.94
10947.9
8282.38
6984.88
4484.58
4128.56
4846.18
5586.5
5856.06
5996.28
6210.58
6846.98
7096.16
7295.95
10530.5
10759.4
10811.4
10771.7
10594.1
10472.5
10547.2
11280.1
11972
11461.5
11153.5
11110
10503.5
10792.8
10870.7
11093.3
11164.3
10442.1
10100.4
10103.6
10431.5
10275.6
11015.6
11111.3
10266.9
10264.3
10180.3
9625.07
9156.55
8698.02
8424.37
8161.63
8844.84
9084.26
10188.6
11193
7190.82
7347.56
7535.65
7851.54
7872.85
6588.42
5229.87
4803.62
5942.7
7488.78
9502.89
12350.3
11225.6
11098.9
11120.5
11133.8
11266.7
11387.7
11791.2
12219
12690
13152.4
13732.8
14500.7
11561
11667.6
11726.6
11538.4
11719.5
11927
12207.8
12501.8
12887.4
13255.4
13704.9
14797.3
12294.7
11603.8
11362.8
11514.1
11641.6
11698.2
12233.8
12774
13285.6
12865.3
13242
13590
17159.5
17143.6
17753.2
15273.6
14120.6
14384.4
14753.1
15731.3
18552.2
19796.9
18213.7
17533.4
15635.1
15597.7
15517.7
15251.3
14942.2
14445
14109.7
13820.1
13813.6
13782.9
13735.4
13559.4
16399.6
16149.8
15841.9
15372.2
14949.7
14412.4
14099.3
13925.1
13953.6
13916.8
13848.5
13613.1
15994.2
15860.6
15634.6
15261.7
14888.3
14379.5
14145.5
13956.2
13991.8
13952.9
13958.2
13665.3
16172.6
16003.1
15684.2
15233.3
14819.5
14298.9
14110
14019.4
14023.2
14029.9
14062.6
14004.5
12761.1
12530.4
12469
12483.5
12218.7
11386.1
11096.5
11478.5
11693.7
11774.4
12057.2
12474.2
12814.6
12524.5
12548
12755.7
12705.7
11708.4
10934.7
11518
11664
11709.6
11988.3
12509.4
12519.5
12232.1
12429.4
12681.6
12427.3
11917.8
11278.4
11588.3
11649.3
11641.9
11833
12409.6
12339.8
12051
12395.6
12622
12746.9
12076.5
11589
11714
11724.4
11673.8
11845.6
12406.7
12603.2
13226.5
13100.9
14029.9
13929.7
13472.2
12797
11888.8
11412
10726.5
8768.95
5633.05
12642.4
13512
13554.5
13686.4
12062.8
11157.9
11246.2
11650.8
11568.1
10838
9316.23
6281.14
12732.7
13671.1
13558.5
14396
14132.5
12647.1
11974.2
11767.7
11816.5
11087.3
9607.6
6902.29
12755
13519.3
12710.1
12425.1
11666.9
11237.2
11661.3
11946.7
11935
11433.2
10341.2
8681.78
1047.09
-569.564
-995.377
-699.415
-250.042
134.405
810.414
1329.6
746.775
1473.91
1643.61
2162.94
-698.479
-928.901
-1149.3
-1004.53
-907.01
-752.136
240.041
1759.36
1637.07
2178.48
2181.41
2782.74
-1557.64
-980.948
-1213.31
-1172.24
-1142.87
-889.126
-330.505
1128.93
1259.16
2055.31
1803.79
2147.59
-2094.55
-980.603
-1185.17
-1159.91
-1212.96
-974.206
-635.95
1158.97
1591.56
2069.39
1875.28
2310.77
2328.14
3011.1
4387.84
6209.48
7033.65
7801.03
7591.94
7024.13
7523.74
8057.74
9663.48
7661.36
2973.14
3656.48
5157.01
6501.05
7331.57
7785.3
7030.79
7576.46
8471.85
8513.12
6873.45
8513.11
2835.23
3953.5
4859.94
6290.45
7494.56
8260.94
8152.07
7375.77
7912.8
8935.62
10280.1
9235.35
2773.05
3774.5
5030.02
6185
6659.04
7261.51
7510.27
8019.16
8053.76
8020.06
9024.15
8367.72
6621.07
5680.08
5544.29
5935.87
6318.02
5942.4
6007.18
5920.04
6164.67
6388.68
6597.24
6800.89
7621.26
6284.97
5910.19
6175.45
6324.05
6288.28
6291.62
6154.83
6308.58
6463.13
6622.03
6740.28
7655.43
6817.88
6202.06
6092.23
6331.04
6243.19
6214.49
6087.21
6235.94
6379.27
6545.66
6665.15
7271.5
7203.97
6449.22
6325.45
6367.96
6276.43
6258.57
6170.37
6289.18
6420.44
6557.14
6640.55
6910.04
6996.24
7099.29
7100.86
7511.6
7361.24
6183.95
5046.57
4945.25
6125
8887.67
11356
6833.33
6921.85
7010.19
6983.93
6822.05
6481.28
6092.03
6119.67
6705.66
7634.65
9548.13
11178.3
6786.91
6869.1
6921.37
6893.47
6816.69
6602.54
6133.14
5850.32
6137.82
7091.98
9325.38
10430.2
6736.65
6802.01
6884.98
6847.13
6726.49
6569.24
6415.14
6343.63
6698.86
7229.65
8824.45
8258.94
16372.2
16302.2
18379
19407.4
19057.9
17389
16629.6
16385.9
16149.8
16107.2
15759.2
15745.6
16296.5
15374.8
16720.7
15483.4
15629.1
15729.4
15731.2
15953.2
16556.1
16892.8
16706.1
16537.5
16456.5
15676.3
16954.5
16838.4
16671
16170
16036.7
15951.5
16023.9
16191.1
16145.6
16123.6
15193
15354.5
16172.5
15895.1
16005.3
15857.9
15847.8
15836.2
16020.1
16260.9
16353.8
16349.2
15972.6
15851.5
15534
15084.5
14647.4
14228.7
14056.7
14012.1
14032.4
14047.1
14079.1
14117.4
15949.9
15847.5
15477.4
14964.6
14501.8
14116.7
14050.8
14021.8
14035.1
14049.5
14080.7
14116.7
15820
15740.5
15335.9
14749.7
14376.3
14034.7
14017.6
14011.3
14029.9
14046.8
14072
14109.2
15763.2
15668.9
15238.3
14577.5
14190.3
14003.3
14002.1
14006.5
14024
14037.6
14058.4
14087.1
15674
15546.5
15085.1
14379.3
14090.3
13968.9
13986.4
13999.7
14017.2
14029.9
14047.9
14074.4
15645.9
15450
14975.1
14205.8
13994.9
13961.3
13982.6
13995.5
14011.4
14022.2
14037.2
14061.6
15610.9
15341.3
14864.2
14068.3
13966.6
13951.8
13979.8
13992.7
14007
14017
14030.6
14054.8
15619.3
15277.8
14850.3
13957.6
13953.6
13954.9
13980.6
13991.4
14004.3
14013.7
14028.1
14053.5
15599.5
15228.8
14801
13957.7
13960.1
13958.6
13981.5
13991.6
14003.3
14014
14031.9
14056.7
15637.3
15211.9
15058.4
13964.5
13974.7
13967.1
13984.5
13993
14004.5
14016.3
14037.1
14061.5
15641.3
15228.8
15184.6
14024.1
13978.7
13970.5
13985.1
13994
14005.3
14018.5
14042.6
14066
15696.3
15278.8
15789
14027
13986.9
13980.8
13990
13999
14008.9
14022.9
14047.4
14070.2
12376.4
12313.4
12364.1
12399.1
12207
12063
11736.7
11798.9
11799.9
11795.1
11915.8
12384.1
12477.3
12446.5
12534.9
12482.9
12229.5
12124.4
11866.9
11879.9
11878.8
11901.6
11960.2
12378.5
12493.1
12438.5
12442.1
12418.8
12155.8
12074.5
11942.2
11969.4
11971.8
11985.3
12010.5
11906.2
12541.4
12466.2
12433.4
12327.7
12049.7
12040.3
11968.1
11993.9
12039.4
12080.3
12152.9
11951.3
12656.1
12464.8
12414.5
12146.7
11984.6
11904.7
11909.8
12071
12145
12151.3
12219.5
12141.3
12741.6
12485.6
12386.8
12150
11864.9
11801
12052.7
12120
12174.5
12229.4
12293.1
12259.9
12733.3
12471.7
12396.9
12119.7
11825.8
11844.5
12068
12151.6
12228.7
12266.6
12356.7
12328.3
12780.1
12508.5
12421.7
12239.2
11794
11825.2
12076.8
12173.5
12243.5
12299
12379.3
12360.5
12718.3
12482
12438.3
12252.1
11890.1
11895.5
12071.8
12173.5
12246.6
12311.4
12392.1
12377.1
12780.1
12556.9
12466.1
12325.2
11958.6
11946.8
12094
12184.1
12257.5
12320.6
12404.2
12394
12689.6
12519.9
12565.3
12344.8
12048.6
11953.6
12113.3
12189.4
12259.7
12321.5
12403.5
12393.3
12730.4
12608.1
12590.4
12361.7
12111.2
12008.7
12131.5
12236.5
12302.2
12362.3
12469.5
12457.4
12529.4
13243.1
12828.6
12730
11717.5
11740
11926.4
12115.9
12100
11782.3
11279.8
10651.7
11970.6
12570.4
11907.3
11595.3
11548.5
11690.9
12050.7
12233.8
12244.2
11985.5
11784.4
11550.4
11905.6
11916.1
12289.1
11718.8
11864.3
11937.8
12142.1
12371.8
12379.1
12276.6
12246.7
12041.9
12087
11861.5
11777.9
11959.5
11953.4
12047
12340.3
12480.6
12507.1
12430.2
12474
12590.5
12310.3
12171.6
12191.6
12110.9
12195.1
12289.7
12407.6
12568
12604.8
12589.6
12661.4
12716.8
12328.5
12287.6
12233.5
12277.6
12397.6
12370.4
12548.8
12638.5
12698.1
12735.4
12860.3
12970.4
12362.2
12328.1
12388
12412.9
12501.9
12539.3
12609.7
12699.3
12764.5
12835
12970.5
13008.8
12382.6
12372.7
12435.3
12517.1
12673.5
12671.8
12757.6
12781.2
12870.6
12983.5
13082.7
13087.6
12400.6
12395.6
12481.3
12560.3
12701.3
12729.1
12794.3
12809.2
12891
13020
13126
13102
12416.3
12415.8
12518.1
12650.8
12862.5
12896.7
12949.1
12895.7
12972.5
13094.2
13131.4
13124.3
12413.9
12414.3
12508.6
12610.5
12821.4
12890.3
12918.8
12903.9
12950.5
13090.2
13185.4
13139.7
12489.4
12519.8
12654.9
12853.8
13106.5
13164.4
13292.5
13151.7
13183
13287
13221.7
13154.5
-1603.44
-1032.32
-1141.57
-1199.62
-1228.32
-1101.75
-871.059
763.119
1534.72
2066.97
1891.21
2316.94
-1497.63
-1035.61
-1112.5
-1220.14
-1210.45
-1149.24
-919.738
14.3358
1520.25
2136.18
2017.66
2344.25
-1251.13
-1055.57
-1111.6
-1197.53
-1179.67
-1154.98
-1090.13
-134.033
1141.75
2050.68
1966.01
2428.88
-1236.68
-1013.73
-1099.35
-1159.09
-1133.24
-1141.2
-1011.25
-1010.21
762.335
2039.12
1911.59
2385.54
-1142.2
-1025.64
-1078.77
-1127.15
-1120.22
-1102.59
-1033.86
-746.524
138.329
929.67
1580.28
2508.47
-1062.87
-995.43
-1046.88
-1099.08
-1089.35
-1079.55
-1007.36
-680.08
-749.295
1237.36
1243.85
2405.75
-932.177
-973.684
-1018.81
-1073.63
-1080.13
-1062.84
-958.607
-713.547
-132.077
341.486
822.01
2149.57
-851.649
-955.96
-992.317
-1047
-1057.72
-1018.72
-923.251
-500.556
-161.413
351.459
309.304
1810.82
-733.588
-912.765
-966.634
-1019.73
-1026.11
-958.537
-815.988
-320.766
-30.8744
603.94
292.418
1434.7
-614.857
-895.921
-947.091
-997.593
-990.793
-915.79
-717.827
-216.968
62.5176
534.249
397.636
1375.25
-450.928
-817.239
-926.008
-981.882
-973.224
-865.148
-654.354
-149.095
74.8196
491.839
346.631
1305.12
-275.223
-743.638
-868.111
-942.915
-930.491
-804.303
-592.885
-90.2688
95.1917
406.211
224.322
1295.1
2982.05
3964.31
5115.52
6032.13
6626.42
7231.94
7285.7
7656.72
8011.74
8793.97
9748.28
8050.53
2996.22
4066.92
5085.13
5921.11
6396.83
7033.42
7219.62
7701.74
7679.44
8339.73
9636.99
8818.42
3036.91
3844.42
4920.9
5684.03
6286.21
6894.99
7047.79
7646.96
7927.09
8179.05
9145.37
8320.3
2946.1
3674.26
4652.67
5496.53
6133.76
6767.12
7019.44
7523.29
7740.47
8024.88
8754.21
8465.4
2862.65
3473.84
4424.27
5281.17
6035.01
6725.73
7077.83
7755.99
8025.84
8075.37
8346.96
8454.57
2652.73
3221.3
4085.22
5106.73
5968.98
6733.51
7192.4
7954.91
8289.04
8243.15
8013.59
8422.5
2370.93
2948.9
3878.22
4700.69
5762.4
6783.58
7555.02
8499.91
8355.19
8010.96
7751.62
8421.53
1984.2
2743.37
3101.32
4396.86
6285.97
7073.25
7716.71
8852.21
8561.52
8180.62
7766.31
8508.38
1562.02
2402.86
1248.94
5847.89
7234.63
8212.59
8768.01
9480.68
8934.79
8203.57
7974.77
8651.32
1408.24
2070.31
2658.08
6221.18
7662.32
8895.88
9929.68
10524.1
9732.5
8653.04
8322.02
8883.86
1230.3
1689.75
2998.55
7295.41
7877.71
9124.24
9932.7
10978.3
10010.6
9032.5
8435.3
9135.29
509.019
1991.29
-600.737
7664.19
8253.96
9296.05
10063.3
10961.4
10078.4
9161.59
8584.29
9273.75
7695.55
7395.61
6635.95
6346.45
6375.66
6287.03
6275.1
6137.02
6237.54
6333.98
6473.26
6555.74
8063.69
7523.53
6815.56
6390
6416.03
6337.18
6325.62
6213.52
6293.14
6377.42
6474.33
6517.54
8305.53
7718.44
6992.44
6450.53
6442.16
6358.55
6356.86
6257.43
6328.29
6345.49
6430.29
6470.08
8500.52
7895.75
7239.21
6477.97
6480.58
6392.32
6395.45
6315.22
6362.49
6379.31
6432.27
6440.13
8598.79
8146.17
7511.37
6534.69
6506.9
6420.14
6425.82
6338.64
6368.95
6367.91
6421.12
6429.75
8765.66
8540.21
7883.56
6568.44
6536.83
6437.49
6450.21
6372.41
6418.06
6413.6
6443.6
6422.7
9094.88
8957.46
8425.63
6698.27
6566.45
6462.53
6477.28
6402.74
6403.07
6392.31
6438.33
6446.1
9233.73
9250.87
9122.07
6642.68
6660.76
6462.03
6476.53
6398.78
6461.37
6450.39
6491.42
6479.85
9288.3
9365.34
9635.12
7163.49
6554.85
6529.01
6508.19
6479.17
6352.21
6141.28
6374.89
6483.74
9328.26
9344.25
9815.88
7992.99
6625.55
6251.87
6313.26
6200.92
6726.92
7128.55
6802.12
6681.23
9429.81
9182.49
9961.8
8576.89
8222.5
8009.84
7576.17
7584.56
7485.56
7206.77
7354.05
7814.45
9543.05
9399.48
9857.82
8623.51
8436.4
8108.47
7593.49
7552.26
7681.05
7740.94
7736.5
7983.89
6680.73
6751.63
6862.45
6877.77
6803.78
6697.26
6491.75
6415.69
6612.26
7053.47
8730.53
5609.08
6605.15
6669.59
6837.24
6850.91
6808.62
6798.26
6752.56
6752.1
7200.76
7262.43
7900.42
8495.87
6553.99
6555.8
6818.51
6901.96
6881.32
6873.66
6824.25
6856.28
7292.31
7163.15
7418.66
6726.43
6485.12
6499.9
6756.94
6883.06
6943.87
6991.55
7041.32
7212.6
7510.44
7737.85
8346.55
8071.04
6474.24
6495.08
6765.12
6963.24
7028.61
7054.78
7144.66
7303.7
7465.41
7365.36
7775.09
7451.44
6435.51
6436.9
6745.35
6999.71
7092.76
7209.59
7465.67
7671.95
7868.21
7968.59
7990.25
7960.8
6498.38
6600.84
6886.75
7101.33
7215.69
7336.26
7474.39
7894.94
7804.96
7735.68
7938.65
7733.49
6501.09
6489
6878.78
7167.82
7304.14
7535.48
8215.32
8558.9
8134.01
7624.49
7913.59
7918.83
6653.71
6925.54
7430.52
7410.33
7553.76
8028.01
8617.13
8771.98
8159.33
7752.09
7860.3
7926.29
6328.83
6107.57
6699.67
7376.07
8394.95
9015.32
9452.92
9241.79
8394.7
7712.49
7974.43
8079.23
8346.73
8241.51
8402.95
8557.23
8510.42
8789.13
9205.03
9151.21
8451.69
7817.51
8040.43
8183
8494.33
8771.69
8881.84
10332.7
11207
11017.1
10202.5
9486.31
8604.03
7853.11
8131.28
8298.03
16531.2
16366.2
16628.6
16290.3
16138.8
15938.8
15868.1
15797.5
15750
16041.6
16121.5
16141.9
16065.8
15867.4
16017.6
15950
15993
15903.6
15868.5
15836.6
15771.8
16041.2
16109.4
16161.4
16247.2
16202.2
16164.2
16053.7
16018.9
15931.7
15879.1
15818.9
15678.9
15914
15970.2
16039.2
16137.5
16122.6
16091.7
16028.3
16001.9
15939.3
15905.4
15883.7
15759.7
15957.9
15940.7
16005.7
16210.8
16144.4
16104.5
16029.8
16001
15940.4
15901.7
15880.4
15746
15927.4
15849.9
15938.6
16131
16105.7
16079.7
16020.8
15999.5
15958.9
15925.7
15925.8
15797.6
15956.8
15837.4
15890.2
16172.3
16120.8
16088.5
16015.3
15993.4
15951.7
15918.1
15919.4
15786.8
15965.3
15806.7
15842.5
16136.9
16096.2
16074.3
16017.9
16000.1
15970.9
15940.5
15953.1
15827.1
15997.3
15811.7
15818.2
16178.4
16115
16088.7
16013.7
15990.8
15959.9
15928.7
15940.7
15825.5
16027.8
15802.1
15792.9
16158.7
16123
16083.3
16026.2
16003
15977.7
15953.2
15969.4
15883
16080.9
15832.2
15793.2
16186.1
16139.1
16097.8
16023.6
15982.3
15951.1
15920.9
15953.2
15989.3
16121.2
15830
15782
16189.9
16139.6
16101.3
16048.7
16026.5
15988.8
15989.3
16014.9
15964.2
16296.1
15869.7
15797.7
15689.9
15749.7
15729.1
15773.7
15749.8
15783.1
15763.8
15784.5
15773.1
15784.3
15778.4
15784.4
15780.9
15784.6
15782.3
15784.6
15783.2
15784.5
15783.9
15784.2
15414.2
15540
15593
15663.3
15682.2
15725.3
15731.8
15755.8
15758.5
15770.8
15772.2
15778.4
15778.3
15782.3
15781.3
15783.7
15782.9
15784.2
15783.8
15784
15644.2
15712.3
15677.1
15710.7
15704.8
15735.1
15734.8
15754.7
15756.9
15767.5
15770.1
15775.9
15777
15780.9
15780.8
15783.1
15782.8
15783.8
15783.7
15784.1
16084.1
16078
15972.1
15938.1
15896.3
15865.4
15843.3
15827.3
15810.1
15805.7
15794.9
15794.2
15788.5
15788.5
15785.7
15786
15784.7
15784.9
15784.4
15784.6
15857.6
15883.7
15843.8
15862.9
15821.5
15838.3
15803.5
15815
15795.2
15799.2
15790.4
15791
15787.1
15787.3
15785.3
15785.6
15784.4
15784.8
15784.3
15784.4
15783.3
15804.3
15787.6
15802
15787.3
15797.8
15785.7
15793.6
15784.7
15790.2
15783.8
15787.8
15783.4
15786.3
15783.1
15785.3
15783.5
15784.7
15784.1
15784.3
433.358
347.455
462.488
437.357
508.788
398.235
202.844
-218.991
-675.22
-1039.79
-1080.76
-987.235
-924.249
-825.797
-756.95
-627.859
-519.429
-286.936
-78.394
-71.185
206.72
144.628
117.839
-0.65104
-197.265
-408.199
-1035.15
-1452.68
-1824.16
-1821.66
-1384.2
-1168.64
-1021.05
-900.35
-819.705
-685.5
-523.265
-274.596
-207.098
-147.202
1264.42
1270.09
1147.96
1051.88
324.861
81.1394
-615.956
-1832.75
-2394.67
-2437.1
-1773.9
-1100.63
-763.368
-754.09
-651.055
-526.94
-412.676
-222.493
-120.255
-86.5814
359.379
-411.593
-1449.03
483.551
-1527.13
-3938.35
-4790.13
-5368.4
-6078.71
-5778.03
-3616.61
-2062.27
-1565.27
-1114.15
-743.414
-595.065
-480.731
-96.1523
-74.7614
6.5082
6634.1
6934.39
2662.67
496.654
-889.392
-1918.63
-2847.64
-4003.83
-4799.8
-4892.53
-3682.01
-2425.16
-1519.61
-1257.37
-912.058
-512.531
-394.026
-121.328
-106.902
87.9814
-6763.71
-2108.8
-1251.88
-1644.94
-1783.81
-2456.55
-2823.01
-3608.51
-4046.67
-4035.56
-3402.7
-2589.3
-1795.86
-1334.6
-856.066
-522.353
-338.431
-56.8577
-47.2946
130.174
)
;

boundaryField
{
    rotor
    {
        type            fixedFluxPressure;
        gradient        uniform 0;
        value           nonuniform List<scalar> 
192
(
16062.4
16056.4
16050.4
16043.1
16041.6
16040.1
16040.2
16044
16053.4
16069
16087.2
16117.3
16081.4
15993.4
15910.9
15869.4
15869.1
15901.9
15960.7
16016.7
16058.6
16042.2
16000.3
15971.8
6110.32
6097.64
6090.58
6082.05
6090.76
6098.98
6111.13
6119.58
6125.76
6128.9
6148.15
6171.8
6138.91
6069.76
6005.7
6017.61
6101.85
6240.52
6404.93
6535.94
6581.4
6500.59
6394.41
6479.31
6114.55
6054.37
5995.22
5911.88
5840.27
5773.75
5737.2
5735.77
5766.97
5823.12
5887.07
5944.12
5985.69
6011.26
6026.87
6033.14
6037.19
6034.4
6029.69
6021.31
5985.03
5858.98
5837.37
5817.47
10042.6
10045
10046.5
10050.3
10053.6
10060.2
10068.2
10077.8
10088.9
10102.4
10114.9
10134
10161.2
10178.5
10194.8
10212.7
10238.8
10270.2
10292.9
10314.6
10294.8
10274
10270
10282.8
16062.4
16086.4
16093.5
16112.2
16126.5
16160.5
16201.6
16264
16311.8
16370.3
16395.8
16452.5
10282.8
10289.7
10310
10364.3
10711.5
10914.4
11326.7
12260.1
12912.8
13556
13451.6
13615.1
6110.32
6124.18
6106.35
6096.36
6084.52
6137.33
6213.14
6290.81
6377.81
6470.74
6555.43
6669.46
15971.8
15907.8
15823.4
15726.6
15485.5
14382.9
12956.4
11412.1
12654.3
21595.3
32267.4
61407.3
6114.55
6026.05
5960.89
5938.08
5954.23
5990.41
6061.91
6156.48
6294.59
6392.37
6482.39
6529.7
6479.31
6228.58
6390.34
6427.99
6492.41
6454.44
6442.61
6384.45
7544.05
8653.57
9367.64
10634.9
10042.6
10077.7
10086.7
10118.3
10138.5
10181.9
10217.5
10284.2
10342
10417.7
10465.7
10544
5817.47
6148.6
6126.12
6210.2
6236.67
6304.85
7106.23
8782.7
10302.2
10527.1
12991.9
11772.8
)
;
    }
    stator
    {
        type            fixedFluxPressure;
        gradient        uniform 0;
        value           nonuniform List<scalar> 
260
(
14027
13986.9
13980.8
13990
13999
14008.9
14022.9
14047.4
14070.2
12730.4
12608.1
12590.4
12361.7
12111.2
12008.7
12131.5
12236.5
12302.2
12362.3
12469.5
12457.4
12489.4
12519.8
12654.9
12853.8
13106.5
13164.4
13292.5
13151.7
13183
13287
13221.7
13154.5
-275.223
-743.638
-868.111
-942.915
-930.491
-804.303
-592.885
-90.2688
95.1917
7664.19
8253.96
9296.05
10063.3
10961.4
10078.4
9161.59
8584.29
9273.75
9543.05
9399.48
9857.82
8623.51
8436.4
8108.47
7593.49
7552.26
7681.05
7740.94
7736.5
7983.89
8494.33
8771.69
8881.84
10332.7
11207
11017.1
10202.5
9486.31
8604.03
7853.11
8131.28
8298.03
16189.9
16139.6
16101.3
16048.7
16026.5
15988.8
15989.3
16014.9
15964.2
12376.4
12477.3
12493.1
12541.4
12656.1
12741.6
12733.3
12780.1
12718.3
12780.1
12689.6
12730.4
14117.4
14116.7
14109.2
14087.1
14074.4
14061.6
14054.8
14053.5
14056.7
14061.5
14066
14070.2
-1603.44
-1497.63
-1251.13
-1236.68
-1142.2
-1062.87
-932.177
-851.649
-733.588
-614.857
-450.928
-275.223
10651.7
11550.4
12041.9
12590.5
12716.8
12970.4
13008.8
13087.6
13102
13124.3
13139.7
13154.5
7695.55
8063.69
8305.53
8500.52
8598.79