/*--------------------------------*- C++ -*----------------------------------*\
| =========                 |                                                 |
| \\      /  F ield         | OpenFOAM: The Open Source CFD Toolbox           |
|  \\    /   O peration     | Version:  2212                                  |
|   \\  /    A nd           | Website:  www.openfoam.com                      |
|    \\/     M anipulation  |                                                 |
\*---------------------------------------------------------------------------*/
FoamFile
{
    version     2.0;
    format      ascii;
    arch        "LSB;label=32;scalar=64";
    class       surfaceScalarField;
    location    "1.5";
    object      phi;
}
// * * * * * * * * * * * * * * * * * * * * * * * * * * * * * * * * * * * * * //

dimensions      [0 3 -1 0 0 0 0];

oriented        oriented;

internalField   nonuniform List<scalar> 
6392
(
-1.47473e-06
1.47473e-06
-6.93512e-06
5.46039e-06
-2.03397e-05
1.34045e-05
-3.45069e-05
1.41673e-05
-6.18154e-05
2.73084e-05
-0.000127387
6.55716e-05
-0.000207547
8.01597e-05
-0.000251965
4.44183e-05
-0.000261188
9.22352e-06
-0.000248765
-1.24236e-05
-0.000223727
-2.50381e-05
-3.6493e-05
-0.000187234
-8.05601e-06
9.53074e-06
-2.07648e-05
1.81691e-05
-4.64721e-05
3.91119e-05
-8.9885e-05
5.75801e-05
-0.000144694
8.21171e-05
-0.000189682
0.00011056
-0.000212548
0.000103026
-0.00022611
5.79803e-05
-0.00023337
1.64841e-05
-0.000239414
-6.37952e-06
-0.00023839
-2.60626e-05
-5.65795e-05
-0.000218303
1.23532e-05
-2.82244e-06
1.68202e-05
1.37021e-05
9.81403e-07
5.49507e-05
-4.02211e-05
9.87826e-05
-9.475e-05
0.000136646
-0.000142405
0.000158215
-0.000184555
0.000145176
-0.000226893
0.000100318
-0.000262234
5.18253e-05
-0.000293077
2.44637e-05
-0.000315376
-3.76419e-06
-4.82627e-05
-0.000323692
3.07265e-05
-3.35489e-05
5.67189e-05
-1.22904e-05
5.59889e-05
5.56808e-05
2.58971e-05
0.000128874
-3.09527e-05
0.000193496
-9.89078e-05
0.00022617
-0.000164718
0.000210986
-0.000222245
0.000157844
-0.000270936
0.000100516
-0.000307451
6.09794e-05
-0.000336282
2.50662e-05
-2.64675e-05
-0.000358077
3.4865e-05
-6.84139e-05
6.2803e-05
-4.02284e-05
6.84091e-05
5.00747e-05
5.6464e-05
0.000140819
1.37159e-05
0.000236244
-4.74511e-05
0.000287337
-0.000122886
0.00028642
-0.000190433
0.000225392
-0.000239304
0.000149387
-0.00027431
9.59852e-05
-0.000298132
4.88881e-05
-5.61547e-07
-0.000324038
1.3521e-05
-8.1935e-05
1.79356e-05
-4.46429e-05
2.25929e-05
4.54174e-05
3.02963e-05
0.000133116
1.66683e-05
0.000249872
-1.62196e-05
0.000320225
-6.68716e-05
0.000337072
-0.000128379
0.0002869
-0.000173872
0.00019488
-0.000191302
0.000113416
-0.00019947
5.70556e-05
1.31632e-05
-0.000213195
2.49519e-05
-0.000106887
2.60414e-05
-4.57325e-05
2.58339e-05
4.56249e-05
2.25316e-05
0.000136418
2.67634e-05
0.00024564
1.53927e-05
0.000331596
5.07401e-06
0.000347391
-1.65461e-05
0.00030852
-5.25962e-05
0.00023093
-5.44843e-05
0.000115304
-3.24034e-05
3.49748e-05
-1.03559e-05
-8.88431e-06
1.58446e-05
-0.000122731
1.84124e-05
-4.83002e-05
8.47751e-06
5.55598e-05
-6.10776e-06
0.000151004
7.67494e-07
0.000238765
2.01012e-05
0.000312262
5.09865e-05
0.000316506
0.000104214
0.000255292
0.000135001
0.000200142
0.000147222
0.000103084
0.000177498
4.69866e-06
-5.00506e-05
0.000217192
-0.000132104
9.37238e-06
-0.0001751
-5.30374e-06
-0.000166487
4.69465e-05
-0.000149902
0.000134419
-0.000117902
0.000206765
-5.3273e-05
0.000247633
2.02873e-05
0.000242946
0.000119591
0.000155988
0.000220576
9.91581e-05
0.000294105
2.95543e-05
0.000353369
-5.45653e-05
-0.000100961
0.000404279
-0.000130612
0.000139985
-0.000209785
7.38692e-05
-0.000278649
0.00011581
-0.000300831
0.0001566
-0.000243667
0.000149602
-0.000128209
0.000132174
2.49859e-05
8.9751e-05
0.000198794
-1.78197e-05
0.000371157
-7.32053e-05
0.000514732
-0.000114021
0.000614716
-0.000154549
-0.000168361
0.000682117
-0.000119656
0.000259641
-0.000190843
0.000145056
-0.00021296
0.000137928
-0.000152516
9.61559e-05
9.75045e-07
-3.88907e-06
0.000220069
-8.69196e-05
0.000474702
-0.000164882
0.000686026
-0.000229143
0.000824029
-0.000211208
0.000909687
-0.000199679
0.000946726
-0.000191588
-0.0001737
0.000952065
6.80344e-06
0.000252837
6.75853e-05
8.42741e-05
0.000266878
-6.13651e-05
0.000517218
-0.000154184
0.000752644
-0.000239316
0.000939054
-0.000273329
0.00104254
-0.000268365
0.00106821
-0.00025482
0.00106811
-0.000211107
0.00105364
-0.000185202
0.00102204
-0.00015999
0.000981584
-0.000133246
-0.000127113
-6.01204e-05
-5.37544e-05
-7.33589e-05
2.44907e-05
-7.82451e-05
0.000117704
-9.32136e-05
0.000220482
-0.000102778
0.000323081
-0.000102599
0.0003666
-4.3519e-05
0.000351886
1.47143e-05
0.000289679
6.2207e-05
0.000196398
9.32809e-05
8.6696e-05
0.000109702
8.6696e-05
-0.000181614
-9.68098e-05
-0.000123253
-0.00013172
-3.93417e-05
-0.000162156
6.33695e-05
-0.000195925
0.000192055
-0.000231463
0.000301086
-0.000211631
0.000359299
-0.000101732
0.0003592
1.48135e-05
0.000305206
0.000116201
0.000232605
0.000165882
0.000123275
0.000219032
0.000209971
-0.000315116
-0.000105386
-0.000281717
-0.000165119
-0.000221045
-0.000222828
-0.000126966
-0.000290004
-1.6723e-05
-0.000341706
0.000114373
-0.000342727
0.000208099
-0.000195457
0.000224954
-2.04175e-06
0.000212815
0.00012834
0.000169459
0.000209239
9.21102e-05
0.00029638
0.000302081
-0.000375543
-8.79199e-05
-0.000385101
-0.000155562
-0.000379478
-0.000228451
-0.000348916
-0.000320566
-0.000283132
-0.00040749
-0.000157523
-0.000468335
1.65765e-05
-0.000369557
9.55691e-05
-8.10344e-05
0.000108846
0.000115063
0.000111928
0.000206157
5.66081e-05
0.0003517
0.000358689
-0.000355618
-5.63397e-05
-0.000388049
-0.000123131
-0.000416123
-0.000200377
-0.000426986
-0.000309704
-0.000399486
-0.000434989
-0.000335883
-0.000531938
-0.000141432
-0.000564009
5.25068e-05
-0.000274973
8.53439e-05
8.22257e-05
9.43732e-05
0.000197127
5.42185e-05
0.000391855
0.000412908
-0.000241236
-2.82979e-05
-0.000289751
-7.46164e-05
-0.000350842
-0.000139285
-0.000404171
-0.000256375
-0.000422737
-0.000416423
-0.000394748
-0.000559927
-0.000313391
-0.000645366
-0.00011363
-0.000474734
3.16925e-06
-3.4574e-05
2.97878e-05
0.000170509
9.63168e-06
0.000412011
0.000422539
-5.07443e-06
-3.21078e-05
-5.04733e-05
-2.92176e-05
-0.000138206
-5.15529e-05
-0.000255193
-0.000139387
-0.000358944
-0.000312673
-0.000397686
-0.000521185
-0.000401664
-0.000641388
-0.000291787
-0.000584611
-0.000149706
-0.000176656
-7.92511e-05
0.000100054
-2.38306e-05
0.000356591
0.000398709
0.000264983
-7.98979e-05
0.000302783
-6.7018e-05
0.000290421
-3.91905e-05
0.000206062
-5.50285e-05
3.24483e-05
-0.000139059
-0.000170643
-0.000318093
-0.00032855
-0.000483482
-0.000336738
-0.000576422
-0.000203203
-0.000310191
-8.39303e-05
-1.9218e-05
-1.95852e-05
0.000292245
0.000379124
0.000453882
-0.000129501
0.000513292
-0.000126428
0.000551138
-7.70365e-05
0.000558628
-6.25188e-05
0.000506834
-8.72643e-05
0.000386278
-0.000197538
0.000168384
-0.000265588
-6.94171e-05
-0.00033862
-7.34192e-05
-0.000306189
2.28539e-05
-0.000115491
2.8774e-05
0.000286325
0.000407898
0.000711752
-0.000159137
0.000718775
-0.000133451
0.000717308
-7.55689e-05
0.000714485
-5.9696e-05
0.000696798
-6.95775e-05
0.000636654
-0.000137393
0.000534352
-0.000163287
0.000321149
-0.000125416
0.000153149
-0.00013819
0.000113368
-7.57093e-05
7.89181e-05
0.000320775
0.000486816
0.000944619
-0.000151691
0.000936272
-0.000125105
0.000922106
-6.14026e-05
0.000894886
-3.24759e-05
0.000848537
-2.32285e-05
0.000752106
-4.09623e-05
0.000661559
-7.27395e-05
0.000571257
-3.5115e-05
0.000441278
-8.21123e-06
0.000320953
4.46166e-05
0.000238108
0.000403619
0.000724924
0.000935086
-0.000105192
0.000892123
-8.21426e-05
0.000864934
-3.42131e-05
0.000850353
-1.78948e-05
0.000840656
-1.35312e-05
0.000811511
-1.18181e-05
0.000763453
-2.46812e-05
0.000693636
3.47022e-05
0.00055559
0.000129834
0.00040393
0.000196277
0.000310532
0.000497017
0.00103546
1.94883e-05
-1.94883e-05
4.81567e-05
-2.86684e-05
8.7002e-05
-3.88453e-05
0.000134718
-4.77162e-05
0.000168989
-3.42711e-05
0.000166266
2.72378e-06
0.000123957
4.2309e-05
1.78532e-05
0.000106103
-0.000126006
0.00014386
-0.000261348
0.000135342
-0.000380693
0.000119345
9.41594e-05
-0.000474852
2.04132e-05
-3.99016e-05
4.69238e-05
-5.5179e-05
6.97708e-05
-6.16923e-05
7.36677e-05
-5.1613e-05
3.23633e-05
7.03321e-06
-8.04581e-05
0.000115545
-0.000227394
0.000189245
-0.000341384
0.000220094
-0.000430218
0.000232693
-0.000529686
0.00023481
-0.0006182
0.000207858
0.000157014
-0.000681054
5.49931e-06
-4.54009e-05
1.32849e-05
-6.29645e-05
1.31308e-05
-6.15383e-05
-1.70197e-05
-2.14625e-05
-0.000104225
9.42381e-05
-0.00021119
0.00022251
-0.000305238
0.000283293
-0.000400559
0.000315415
-0.000505804
0.000337938
-0.000611433
0.000340439
-0.000691236
0.000287661
0.000208921
-0.000743143
3.87829e-08
-4.54397e-05
-2.68917e-06
-6.02366e-05
-2.12956e-05
-4.29319e-05
-5.49596e-05
1.22015e-05
-0.000110905
0.000150183
-0.000194418
0.000306024
-0.000273829
0.000362703
-0.000355957
0.000397543
-0.000456448
0.000438429
-0.000547602
0.000431592
-0.000624521
0.000364581
0.00026305
-0.000678651
8.70379e-06
-5.41434e-05
1.39709e-05
-6.55037e-05
-1.85854e-07
-2.87751e-05
-1.70042e-05
2.90198e-05
-4.40379e-05
0.000177217
-0.000106806
0.000368793
-0.000171116
0.000427013
-0.000251476
0.000477903
-0.000345314
0.000532267
-0.000433132
0.00051941
-0.000507513
0.000438962
0.000310391
-0.000554854
4.67282e-06
-5.88163e-05
1.68744e-05
-7.77053e-05
1.97887e-05
-3.16895e-05
1.90679e-05
2.97406e-05
2.68264e-05
0.000169458
-5.17169e-06
0.000400791
-5.91251e-05
0.000480967
-0.000113209
0.000531987
-0.000171183
0.000590241
-0.000224438
0.000572666
-0.000274331
0.000488855
0.00034579
-0.00030973
1.22287e-05
-7.10449e-05
4.08355e-05
-0.000106312
7.02273e-05
-6.10814e-05
7.02715e-05
2.96965e-05
8.34016e-05
0.000156328
9.53647e-05
0.000388828
6.2274e-05
0.000514057
4.61119e-05
0.000548149
4.36375e-05
0.000592716
4.40482e-05
0.000572255
3.7019e-05
0.000495884
0.00034655
3.62597e-05
2.79211e-05
-9.8966e-05
6.6568e-05
-0.000144959
0.000119816
-0.00011433
0.000143216
6.29662e-06
0.000137267
0.000162277
0.000170336
0.000355759
0.000166648
0.000517745
0.000177101
0.000537696
0.000212555
0.000557262
0.000266252
0.000518558
0.000322411
0.000439725
0.000295132
0.000373828
4.37078e-05
-0.000142674
7.93999e-05
-0.000180651
0.000135962
-0.000170892
0.000162639
-2.03806e-05
0.000148903
0.000176013
0.00019258
0.000312083
0.000208746
0.000501579
0.000247205
0.000499236
0.000314004
0.000490464
0.000406637
0.000425925
0.000497049
0.000349313
0.000213836
0.000578345
-6.49412e-05
-7.77326e-05
-0.000168506
-7.70864e-05
-0.000160291
-0.000179107
-2.5908e-05
-0.000154763
8.06634e-05
6.94413e-05
0.000148439
0.000244307
0.000202263
0.000447755
0.000275502
0.000425997
0.000353465
0.000412501
0.000464161
0.000315229
0.000589226
0.000224248
0.000107391
0.000695671
-0.000178315
0.000100582
-0.000333723
7.83216e-05
-0.000384599
-0.000128231
-0.000225024
-0.000314338
-8.28596e-05
-7.27234e-05
1.75356e-05
0.000143912
0.000158426
0.000306864
0.00025885
0.000325574
0.000374977
0.000296374
0.000496408
0.000193797
0.000613171
0.000107485
-1.06649e-05
0.000731227
-0.000235528
0.00033611
-0.000359235
0.000202028
-0.000454352
-3.31133e-05
-0.000435675
-0.000333016
-0.000267643
-0.000240755
-6.29611e-05
-6.07702e-05
9.93557e-05
0.000144548
0.000233145
0.000191784
0.000370056
0.000159463
0.00049672
6.71334e-05
0.000660311
-5.61054e-05
0.000866805
-0.000217159
-0.000537331
6.24782e-05
-0.000566552
2.92213e-05
-0.000568615
2.06283e-06
-0.00054386
-2.47545e-05
-0.000500902
-4.29585e-05
-0.000435492
-6.54102e-05
-0.000355727
-7.97648e-05
-0.000254862
-0.000100864
-0.000146682
-0.00010818
-5.40156e-05
-9.26665e-05
3.05735e-05
-8.45891e-05
3.05735e-05
-0.000716724
9.81482e-05
-0.000723294
3.57912e-05
-0.000700622
-2.06097e-05
-0.000652814
-7.25625e-05
-0.000586601
-0.000109171
-0.000507933
-0.000144079
-0.000420177
-0.000167521
-0.00031992
-0.000201121
-0.000212254
-0.000215846
-0.000105071
-0.000199849
-2.60077e-05
-0.000163653
4.56575e-06
-0.000763714
0.00011872
-0.000752665
2.47423e-05
-0.000718403
-5.4872e-05
-0.000660468
-0.000130498
-0.000588098
-0.000181541
-0.000508975
-0.000223202
-0.00043264
-0.000243856
-0.000353336
-0.000280425
-0.000275548
-0.000293634
-0.000186891
-0.000288506
-0.000116277
-0.000234266
-0.000111711
-0.000700147
0.000140216
-0.000692208
1.68042e-05
-0.000662112
-8.49687e-05
-0.000612721
-0.000179889
-0.000551547
-0.000242715
-0.000481884
-0.000292864
-0.000416599
-0.000309142
-0.000353467
-0.000343557
-0.00029675
-0.000350352
-0.000224262
-0.000360994
-0.000156678
-0.000301851
-0.000268389
-0.000569804
0.000155165
-0.000552172
-8.28045e-07
-0.000513437
-0.000123703
-0.000466274
-0.000227052
-0.000418736
-0.000290253
-0.000370739
-0.000340861
-0.000331418
-0.000348462
-0.000292224
-0.000382752
-0.000246038
-0.000396537
-0.000180935
-0.000426097
-0.000125052
-0.000357734
-0.000393441
-0.000312532
0.000157968
-0.000285779
-2.75811e-05
-0.000254265
-0.000155218
-0.000219278
-0.000262039
-0.000195191
-0.000314339
-0.000181725
-0.000354328
-0.000185392
-0.000344795
-0.000192908
-0.000375236
-0.000182762
-0.000406682
-0.000136329
-0.00047253
-9.66143e-05
-0.000397449
-0.000490055
4.42837e-05
0.000149944
5.97533e-05
-4.30507e-05
7.20342e-05
-0.000167498
7.8405e-05
-0.00026841
6.5345e-05
-0.000301279
3.54544e-05
-0.000324437
-8.43476e-06
-0.000300906
-5.15632e-05
-0.000332107
-8.12037e-05
-0.000377042
-7.10174e-05
-0.000482716
-4.46516e-05
-0.000423814
-0.000534707
0.000405257
0.000118516
0.000414216
-5.20104e-05
0.000407062
-0.000160345
0.000371258
-0.000232605
0.000308909
-0.000238931
0.000223665
-0.000239193
0.000131668
-0.000208909
6.40244e-05
-0.000264464
2.85334e-06
-0.000315871
-2.21156e-05
-0.000457747
-4.21494e-06
-0.000441715
-0.000538922
0.000633363
6.3498e-05
0.000650971
-6.96188e-05
0.000630764
-0.000140137
0.000571306
-0.000173148
0.000495219
-0.000162844
0.000399683
-0.000143658
0.00031375
-0.000122975
0.00022497
-0.000175684
0.000110294
-0.000201195
3.35842e-05
-0.000381038
2.14286e-05
-0.00042956
-0.000517493
0.000765488
-6.31908e-06
0.000803413
-0.000107544
0.000808968
-0.000145692
0.00077982
-0.000144
0.000734773
-0.000117796
0.000669243
-7.81272e-05
0.000573393
-2.71254e-05
0.000402557
-4.84807e-06
0.000236614
-3.52518e-05
0.000124174
-0.000268598
5.6773e-05
-0.000362158
-0.00046072
0.000839793
-0.000114886
0.000929185
-0.000196935
0.000973704
-0.000190211
0.000979328
-0.000149624
0.000962694
-0.000101162
0.000915988
-3.14214e-05
0.000830675
5.81879e-05
0.000700827
0.000125
0.000582989
8.25858e-05
0.00041432
-9.99295e-05
0.000195943
-0.00014378
-0.000264777
0.00100986
-0.000257939
0.00107812
-0.000265196
0.00110006
-0.00021215
0.00110287
-0.000152439
0.00109667
-9.49622e-05
0.00110202
-3.67659e-05
0.00114692
1.3283e-05
0.0011662
0.000105726
0.00108614
0.000162639
0.000807704
0.000178509
0.000456686
0.000207237
0.000191908
9.87918e-05
-9.87918e-05
0.000179583
-8.07915e-05
0.000255425
-7.58414e-05
0.000302508
-4.70836e-05
0.000312237
-9.72903e-06
0.000284117
2.81202e-05
0.000226551
5.75658e-05
0.000181154
4.53973e-05
0.000122816
5.83382e-05
-1.70408e-05
0.000139857
-0.00025612
0.000239079
0.000350596
-0.000606716
8.29538e-05
-0.000181746
0.000173758
-0.000171596
0.000246161
-0.000148244
0.00029351
-9.44332e-05
0.000289691
-5.90967e-06
0.000216702
0.000101109
0.000123215
0.000151053
2.35086e-05
0.000145103
-0.000127279
0.000209126
-0.000354743
0.000367321
-0.000566408
0.000450744
0.000432877
-0.000648689
8.07025e-05
-0.000262448
0.000168792
-0.000259686
0.000236655
-0.000216106
0.000277789
-0.000135568
0.000254849
1.70309e-05
0.000184648
0.00017131
0.000108919
0.000226782
-2.58046e-05
0.000279827
-0.00023105
0.000414371
-0.000395909
0.000532179
-0.000478567
0.000533403
0.00048002
-0.000525709
5.64865e-05
-0.000318935
0.000119546
-0.000322745
0.000159913
-0.000256473
0.000171011
-0.000146666
0.000127771
6.02709e-05
7.48362e-05
0.000224245
-1.76015e-05
0.00031922
-0.000167654
0.000429879
-0.000306142
0.00055286
-0.000379384
0.000605421
-0.000428411
0.000582429
0.000520268
-0.000468659
2.03508e-05
-0.000339285
4.44402e-05
-0.000346835
5.42899e-05
-0.000266323
5.11151e-05
-0.000143491
6.68488e-06
0.000104701
-6.13039e-05
0.000292234
-0.000158356
0.000416271
-0.000247241
0.000518765
-0.00029911
0.000604729
-0.000329886
0.000636197
-0.000356157
0.0006087
0.000538858
-0.000374747
-1.04509e-05
-0.000328835
-2.78712e-05
-0.000329414
-4.50359e-05
-0.000249158
-7.13862e-05
-0.000117141
-0.000128791
0.000162106
-0.000178439
0.000341881
-0.000219152
0.000456984
-0.000242642
0.000542256
-0.000259259
0.000621345
-0.000273004
0.000649942
-0.000281042
0.000616739
0.000536493
-0.000278677
-3.2095e-05
-0.00029674
-6.28239e-05
-0.000298686
-9.81164e-05
-0.000213866
-0.000127731
-8.75269e-05
-0.000173612
0.000207988
-0.000191981
0.00036025
-0.000201773
0.000466776
-0.000201144
0.000541627
-0.000190816
0.000611018
-0.000178486
0.000637611
-0.000155869
0.000594122
0.000513278
-0.000132654
-5.66726e-05
-0.000240067
-0.000107773
-0.000247586
-0.000128837
-0.000192802
-0.000140658
-7.57058e-05
-0.000166971
0.000234301
-0.000165719
0.000358998
-0.000159732
0.000460789
-0.000135483
0.000517378
-9.50895e-05
0.000570624
-4.90305e-05
0.000591552
-3.98072e-07
0.00054549
0.000479348
3.3532e-05
-7.0532e-05
-0.000169535
-0.000118043
-0.000200075
-0.00013004
-0.000180805
-0.00013023
-7.55149e-05
-0.00012695
0.000231021
-0.00010709
0.000339139
-8.24873e-05
0.000436185
-4.36586e-05
0.000478549
1.48885e-05
0.000512077
8.13157e-05
0.000525125
0.000143295
0.00048351
0.00043401
0.000188633
-0.00011885
-5.06851e-05
-0.000165522
-0.000153403
-0.000177889
-0.000168438
-0.000154398
-9.90059e-05
-0.000109742
0.000186364
-7.04609e-05
0.000299858
-2.24725e-05
0.000388197
3.39548e-05
0.000422122
0.000116573
0.000429459
0.000200324
0.000441375
0.000270623
0.000413211
0.000371797
0.000332836
-0.000102201
5.1516e-05
-0.000135674
-0.00011993
-0.000128193
-0.000175919
-9.88237e-05
-0.000128375
-2.33554e-05
0.000110896
3.72034e-05
0.000239299
9.62471e-05
0.000329153
0.000158064
0.000360305
0.000237056
0.000350467
0.000323587
0.000354844
0.00041147
0.000325328
0.000287761
0.000495506
-7.57433e-05
0.000127259
-0.000174164
-2.15091e-05
-0.000193841
-0.000156242
-0.000149055
-0.000173162
-3.48488e-05
-3.30981e-06
6.59278e-05
0.000138523
0.000155597
0.000239484
0.000241264
0.000274637
0.000340272
0.000251459
0.000441261
0.000253854
0.000530158
0.000236431
0.000606472
0.000211447
-0.00085379
0.000247073
-0.0010093
0.000155515
-0.00111374
0.000104433
-0.00115159
3.78557e-05
-0.00115274
1.14703e-06
-0.00112129
-3.14495e-05
-0.00106147
-5.98231e-05
-0.000978909
-8.25587e-05
-0.000858945
-0.000119964
-0.000689978
-0.000168968
-0.000407729
-0.000282249
-0.000407729
-0.000712936
0.00031132
-0.00074647
0.000189048
-0.000743572
0.000101536
-0.000722157
1.64406e-05
-0.000683435
-3.75749e-05
-0.00062894
-8.59446e-05
-0.000551723
-0.00013704
-0.000467141
-0.000167141
-0.000378894
-0.000208211
-0.000286264
-0.000261597
-0.00017363
-0.000394882
-0.00058136
-0.000561825
0.000347436
-0.000579715
0.000206938
-0.000588981
0.000110802
-0.000596298
2.37573e-05
-0.000578608
-5.52653e-05
-0.000521139
-0.000143413
-0.000440018
-0.000218161
-0.000340965
-0.000266194
-0.000236764
-0.000312412
-0.000133997
-0.000364364
-6.88336e-05
-0.000460046
-0.000650193
-0.000495329
0.000374106
-0.000508591
0.0002202
-0.000521357
0.000123568
-0.000529824
3.22244e-05
-0.000502341
-8.27484e-05
-0.000448948
-0.000196806
-0.000376442
-0.000290667
-0.000289279
-0.000353356
-0.000197114
-0.000404578
-9.9654e-05
-0.000461824
-2.91115e-05
-0.000530588
-0.000679305
-0.000388209
0.000387568
-0.000414185
0.000246177
-0.000439778
0.000149161
-0.00043879
3.12365e-05
-0.000399583
-0.000121955
-0.000340721
-0.000255668
-0.000277992
-0.000353397
-0.000214606
-0.000416742
-0.000151111
-0.000468073
-8.38039e-05
-0.000529131
-1.67667e-05
-0.000597625
-0.000696071
-0.000286768
0.000395659
-0.000307227
0.000266635
-0.000315765
0.000157699
-0.000291384
6.85538e-06
-0.000243417
-0.000169922
-0.000185782
-0.000313303
-0.000138974
-0.000400204
-0.000105694
-0.000450022
-8.1599e-05
-0.000492168
-5.05234e-05
-0.000560207
1.87333e-06
-0.000650022
-0.000694198
-0.000132011
0.000395016
-0.000143763
0.000278387
-0.00014275
0.000156685
-0.000115778
-2.01166e-05
-7.74324e-05
-0.000208268
-4.4606e-05
-0.000346129
-2.27832e-05
-0.000422027
-1.58067e-05
-0.000456999
-1.50073e-05
-0.000492967
-3.19837e-05
-0.00054323
-7.23768e-06
-0.000674768
-0.000701436
4.83843e-05
0.000380164
5.9733e-05
0.000267039
8.05618e-05
0.000135856
0.000110629
-5.0184e-05
0.000129386
-0.000227024
0.00012716
-0.000343903
0.000107717
-0.000402584
7.30219e-05
-0.000422304
4.20608e-05
-0.000462006
-6.45329e-06
-0.000494716
-2.70059e-05
-0.000654216
-0.000728442
0.000230396
0.000338401
0.000272269
0.000225166
0.000307156
0.000100968
0.00033514
-7.81682e-05
0.000328109
-0.000219993
0.000294812
-0.000310606
0.000239182
-0.000346955
0.000173604
-0.000356725
9.55073e-05
-0.00038391
2.06451e-05
-0.000419854
-8.67133e-06
-0.000624899
-0.000737113
0.000396103
0.000275134
0.000451123
0.000170146
0.000500736
5.13554e-05
0.000520431
-9.78631e-05
0.000491483
-0.000191045
0.000438269
-0.000257392
0.000362441
-0.000271126
0.000280153
-0.000274437
0.00017934
-0.000283097
9.38422e-05
-0.000334356
4.17708e-05
-0.000572828
-0.000695342
0.000573618
0.000197022
0.000648174
9.55898e-05
0.0006952
4.32912e-06
0.000682694
-8.53563e-05
0.000627491
-0.000135842
0.000554929
-0.000184831
0.000470908
-0.000187105
0.000394022
-0.000197551
0.000324975
-0.00021405
0.000275781
-0.000285163
0.000187367
-0.000484414
-0.000507975
0.000683853
0.000119641
0.000749834
2.9609e-05
0.000779061
-2.48979e-05
0.000757064
-6.33594e-05
0.000715698
-9.4476e-05
0.000652601
-0.000121734
0.000594805
-0.000129309
0.000554217
-0.000156963
0.000528335
-0.000188168
0.000467652
-0.000224479
0.000280972
-0.000297734
-0.000227003
4.47797e-05
-4.47797e-05
8.4871e-05
-4.00913e-05
0.000120996
-3.61252e-05
0.00014681
-2.58135e-05
0.000145761
1.04824e-06
0.000140441
5.32033e-06
0.00013954
9.01333e-07
0.000140001
-4.61448e-07
0.000119481
2.05198e-05
7.6726e-05
4.27554e-05
2.26778e-05
5.40482e-05
8.50145e-05
-6.23366e-05
4.63409e-05
-9.11206e-05
8.45079e-05
-7.82583e-05
8.48487e-05
-3.6466e-05
7.52525e-05
-1.62173e-05
6.05743e-05
1.57265e-05
4.22774e-05
2.36172e-05
1.87612e-05
2.44175e-05
-1.21637e-05
3.04635e-05
-6.33202e-05
7.16763e-05
-0.00014314
0.000122575
-0.000234878
0.000145787
0.000134785
-0.000284649
6.05092e-06
-9.71715e-05
9.04525e-06
-8.12526e-05
-1.43626e-05
-1.30581e-05
-2.94533e-05
-1.12665e-06
-1.37085e-05
-1.83287e-08
4.43569e-06
5.47301e-06
-9.47076e-06
3.8324e-05
-7.49516e-05
9.59444e-05
-0.000166878
0.000163603
-0.000229804
0.000185501
-0.000259962
0.000175945
0.000153154
-0.000278331
-2.42677e-05
-7.29038e-05
-5.26765e-05
-5.28438e-05
-7.63057e-05
1.05711e-05
-8.37268e-05
6.29441e-06
-8.76209e-05
3.87575e-06
-9.67461e-05
1.45983e-05
-0.000134939
7.65171e-05
-0.000194025
0.00015503
-0.00022777
0.000197347
-0.000241764
0.000199495
-0.000249943
0.000184125
0.000159314
-0.000256104
-2.24537e-05
-5.04502e-05
-4.49302e-05
-3.03672e-05
-8.11685e-05
4.68094e-05
-0.000117901
4.30269e-05
-0.000138495
2.44696e-05
-0.000151379
2.74821e-05
-0.000161283
8.64213e-05
-0.000173786
0.000167534
-0.000185668
0.000209229
-0.000194072
0.000207899
-0.000197756
0.000187809
0.000157727
-0.000196169
-2.91452e-05
-2.1305e-05
-3.98555e-05
-1.96569e-05
-5.85836e-05
6.55375e-05
-9.92819e-05
8.37252e-05
-0.0001298
5.49879e-05
-0.000145819
4.35009e-05
-0.000141004
8.1606e-05
-0.000131601
0.000158131
-0.000133515
0.000211143
-0.000136112
0.000210496
-0.00013416
0.000185857
0.00015424
-0.000130672
-2.96991e-05
8.39412e-06
-3.9309e-05
-1.00471e-05
-3.51365e-05
6.13651e-05
-6.10937e-05
0.000109682
-9.66025e-05
9.04967e-05
-0.000114461
6.13595e-05
-0.000104129
7.12736e-05
-6.97348e-05
0.000123737
-4.91347e-05
0.000190543
-4.18836e-05
0.000203244
-3.59507e-05
0.000179924
0.000161268
-4.29793e-05
-5.25459e-05
6.094e-05
-6.52537e-05
2.66081e-06
-3.90317e-05
3.5143e-05
-2.47241e-05
9.53749e-05
-3.93476e-05
0.00010512
-5.05534e-05
7.25653e-05
-5.24681e-05
7.31883e-05
-1.75189e-05
8.87879e-05
3.51452e-05
0.000137879
5.52054e-05
0.000183184
5.18575e-05
0.000183272
0.000181399
3.17262e-05
-5.72055e-05
0.000118146
-9.66877e-05
4.2143e-05
-8.69177e-05
2.5373e-05
-3.18182e-05
4.02754e-05
1.57464e-05
5.75555e-05
4.62727e-05
4.2039e-05
5.84571e-05
6.10039e-05
7.12563e-05
7.59887e-05
0.000106488
0.000102647
0.000135984
0.000153689
0.000146297
0.000172959
0.000197097
0.0001306
-9.58698e-05
0.000214015
-0.000113154
5.94273e-05
-0.000116645
2.88639e-05
-6.46931e-05
-1.16765e-05
2.24964e-05
-2.96341e-05
0.000104408
-3.98729e-05
0.00017877
-1.33577e-05
0.000204059
5.06995e-05
0.000206623
0.000100082
0.00022497
0.000135342
0.000254018
0.00014391
0.000181395
0.00026972
1.39259e-05
0.00020009
4.2929e-05
3.04241e-05
7.58604e-05
-4.06742e-06
9.512e-05
-3.09361e-05
0.000114431
-4.89446e-05
0.000152865
-7.83075e-05
0.000222402
-8.28949e-05
0.000285126
-1.20244e-05
0.000319039
6.61697e-05
0.000333976
0.000120406
0.00034833
0.000129556
0.000156596
0.000373129
0.000293377
-9.32873e-05
0.000408868
-8.50675e-05
0.00048315
-7.83495e-05
0.000513205
-6.09907e-05
0.000503258
-3.89973e-05
0.000436261
-1.1311e-05
0.000365556
-1.219e-05
0.000356206
-2.67363e-06
0.000378066
4.43093e-05
0.000392455
0.000106017
0.000397791
0.00012422
0.00041234
0.000142046
-0.000169928
0.000107592
-0.000238106
6.8178e-05
-0.000285884
4.77777e-05
-0.000320303
3.44191e-05
-0.000330116
9.81337e-06
-0.000316081
-1.40357e-05
-0.000275583
-4.04981e-05
-0.000209333
-6.62498e-05
-0.000113807
-9.55259e-05
-1.95868e-05
-9.42202e-05
4.44541e-05
-6.40409e-05
4.44541e-05
-0.00029725
0.000120193
-0.000320214
9.11419e-05
-0.000342183
6.97467e-05
-0.000354031
4.62665e-05
-0.000359452
1.52349e-05
-0.000354333
-1.91551e-05
-0.000330432
-6.43994e-05
-0.000290403
-0.000106279
-0.000227327
-0.000158601
-0.000143593
-0.000177955
-1.93019e-05
-0.000188332
2.51522e-05
-0.000290541
0.000132403
-0.000306331
0.000106932
-0.000322672
8.60881e-05
-0.000333926
5.752e-05
-0.000339847
2.11555e-05
-0.000338341
-2.06609e-05
-0.000318786
-8.39541e-05
-0.000290186
-0.000134879
-0.00024855
-0.000200237
-0.000187827
-0.000238678
-8.81518e-05
-0.000288007
-6.29996e-05
-0.000256623
0.000132923
-0.000258877
0.000109185
-0.000259805
8.70164e-05
-0.000257728
5.54435e-05
-0.000247389
1.08164e-05
-0.000236319
-3.17309e-05
-0.000221115
-9.91587e-05
-0.000206641
-0.000149352
-0.000183744
-0.000223134
-0.000151868
-0.000270554
-9.65618e-05
-0.000343313
-0.000159561
-0.00018876
0.000125514
-0.000182507
0.000102932
-0.000171519
7.6028e-05
-0.00015521
3.91344e-05
-0.000132864
-1.15293e-05
-0.000112024
-5.25706e-05
-9.41681e-05
-0.000117015
-8.92767e-05
-0.000154244
-8.38961e-05
-0.000228515
-7.13667e-05
-0.000283083
-4.16107e-05
-0.000373069
-0.000201172
-0.000126628
0.00012147
-0.000130933
0.000107237
-0.000130078
7.51726e-05
-0.000111443
2.04996e-05
-8.32093e-05
-3.97632e-05
-5.36062e-05
-8.21737e-05
-3.04222e-05
-0.000140199
-2.37426e-05
-0.000160923
-2.46256e-05
-0.000227632
-1.90736e-05
-0.000288635
-4.16701e-07
-0.000391726
-0.000201589
-6.23391e-05
0.00014083
-8.84548e-05
0.000133353
-0.000106259
9.2977e-05
-0.000102697
1.69376e-05
-7.89389e-05
-6.35215e-05
-4.00432e-05
-0.000121069
-8.57592e-06
-0.000171666
6.14502e-06
-0.000175644
7.53926e-06
-0.000229026
1.78653e-05
-0.000298961
3.36129e-05
-0.000407474
-0.000167976
-1.57287e-06
0.000174129
-3.88982e-05
0.000170678
-6.46701e-05
0.000118749
-6.52362e-05
1.75038e-05
-4.54974e-05
-8.32603e-05
-1.24687e-05
-0.000154098
1.77442e-05
-0.000201879
2.77306e-05
-0.000185631
2.08732e-05
-0.000222169
3.69614e-05
-0.00031505
6.40021e-05
-0.000434514
-0.000103974
0.000100715
0.000204015
7.10644e-05
0.000200328
4.66248e-05
0.000143188
3.49597e-05
2.91689e-05
4.81321e-05
-9.64327e-05
5.96766e-05
-0.000165643
6.42652e-05
-0.000206467
5.94412e-05
-0.000180807
3.99137e-05
-0.000202641
4.81158e-05
-0.000323252
5.00516e-05
-0.00043645
-5.39221e-05
0.00027902
0.000194715
0.000291345
0.000188003
0.000298019
0.000136514
0.000274253
5.29348e-05
0.000238803
-6.0982e-05
0.000207776
-0.000134616
0.000167748
-0.000166439
0.000123621
-0.00013668
8.4333e-05
-0.000163353
7.63725e-05
-0.000315291
4.65772e-05
-0.000406655
-7.34489e-06
0.000407893
0.000159951
0.000436326
0.00015957
0.00046557
0.00010727
0.000470864
4.76409e-05
0.000414773
-4.89113e-06
0.000341536
-6.13785e-05
0.000254956
-7.98601e-05
0.000180665
-6.23883e-05
0.000132265
-0.000114953
9.81605e-05
-0.000281186
4.79627e-05
-0.000356457
4.06178e-05
0.000449495
0.000122797
0.000494638
0.000114426
0.000524467
7.74409e-05
0.000524557
4.75509e-05
0.000492986
2.66799e-05
0.000434983
-3.37591e-06
0.000363584
-8.46127e-06
0.000317761
-1.65649e-05
0.000270905
-6.80972e-05
0.000157183
-0.000167465
-7.04749e-07
-0.00019857
3.9913e-05
0.000440984
-0.000227835
3.96878e-05
0.000795108
-0.000269849
0.00101558
-0.000281833
0.00114639
-0.000285003
0.00119504
-0.00028796
0.00117337
-0.000251663
0.00110426
-0.000199255
0.0010222
-0.000172754
0.000957425
-0.000146336
0.000908126
-0.000135903
0.000872707
-0.000124571
-0.00011282
0.000852281
0.00119758
-0.00026449
-0.00116092
0.00117625
-0.000248524
0.00112796
-0.00023354
0.0010592
-0.000216241
0.000968446
-0.000197207
0.000896228
-0.000179445
0.000856829
-0.000159856
0.000840535
-0.00015646
0.000845058
-0.000150859
0.000856939
-0.000147784
0.000863968
-0.0001316
-0.000116151
0.000867299
0.000917993
-0.000259023
-0.000923461
0.000904199
-0.000234729
0.000898747
-0.000228088
0.000900834
-0.000218328
0.000908814
-0.000205187
0.000922794
-0.000193425
0.00094338
-0.000180442
0.000968101
-0.000181181
0.000988058
-0.000170817
0.00100261
-0.000162341
0.00100994
-0.000138925
-0.000115566
0.00100935
0.000949577
-0.000943116
-0.000265484
0.000966429
-0.000251582
0.000988372
-0.000250031
0.00101438
-0.000244335
0.00104259
-0.0002334
0.00107367
-0.000224499