/*--------------------------------*- C++ -*----------------------------------*\
| =========                 |                                                 |
| \\      /  F ield         | OpenFOAM: The Open Source CFD Toolbox           |
|  \\    /   O peration     | Version:  2212                                  |
|   \\  /    A nd           | Website:  www.openfoam.com                      |
|    \\/     M anipulation  |                                                 |
\*---------------------------------------------------------------------------*/
FoamFile
{
    version     2.0;
    format      ascii;
    arch        "LSB;label=32;scalar=64";
    class       surfaceScalarField;
    location    "1.5";
    object      phi.air;
}
// * * * * * * * * * * * * * * * * * * * * * * * * * * * * * * * * * * * * * //

dimensions      [0 3 -1 0 0 0 0];

oriented        oriented;

internalField   nonuniform List<scalar> 
6392
(
-1.47473e-06
1.4747e-06
-6.93512e-06
5.46036e-06
-2.03397e-05
1.34045e-05
-3.45069e-05
1.41672e-05
-6.18154e-05
2.73084e-05
-0.000127387
6.55716e-05
-0.000207547
8.01596e-05
-0.000251965
4.4418e-05
-0.000261189
9.22312e-06
-0.000248765
-1.24241e-05
-0.000223727
-2.50385e-05
-3.64934e-05
-0.000187234
-8.05603e-06
9.5307e-06
-2.07648e-05
1.81691e-05
-4.64721e-05
3.91119e-05
-8.9885e-05
5.75801e-05
-0.000144694
8.21171e-05
-0.000189682
0.00011056
-0.000212548
0.000103026
-0.00022611
5.79798e-05
-0.000233371
1.64836e-05
-0.000239415
-6.38003e-06
-0.00023839
-2.60631e-05
-5.65801e-05
-0.000218304
1.23532e-05
-2.82249e-06
1.68202e-05
1.37021e-05
9.81356e-07
5.49507e-05
-4.02212e-05
9.87826e-05
-9.475e-05
0.000136646
-0.000142406
0.000158215
-0.000184556
0.000145175
-0.000226893
0.000100317
-0.000262235
5.18247e-05
-0.000293078
2.44632e-05
-0.000315377
-3.76471e-06
-4.82634e-05
-0.000323694
3.07265e-05
-3.3549e-05
5.67189e-05
-1.22904e-05
5.59888e-05
5.56808e-05
2.58971e-05
0.000128874
-3.09528e-05
0.000193496
-9.89079e-05
0.00022617
-0.000164718
0.000210986
-0.000222245
0.000157844
-0.000270936
0.000100516
-0.000307452
6.09789e-05
-0.000336283
2.50657e-05
-2.64683e-05
-0.000358078
3.4865e-05
-6.8414e-05
6.2803e-05
-4.02284e-05
6.84091e-05
5.00747e-05
5.6464e-05
0.000140819
1.37159e-05
0.000236244
-4.74513e-05
0.000287337
-0.000122886
0.00028642
-0.000190434
0.000225392
-0.000239304
0.000149387
-0.00027431
9.59847e-05
-0.000298132
4.88874e-05
-5.6255e-07
-0.000324039
1.3521e-05
-8.1935e-05
1.79356e-05
-4.46429e-05
2.25929e-05
4.54174e-05
3.02963e-05
0.000133116
1.66683e-05
0.000249872
-1.62197e-05
0.000320225
-6.68719e-05
0.000337072
-0.00012838
0.0002869
-0.000173872
0.000194879
-0.000191302
0.000113415
-0.00019947
5.7055e-05
1.31621e-05
-0.000213195
2.49519e-05
-0.000106887
2.60414e-05
-4.57325e-05
2.58339e-05
4.56249e-05
2.25316e-05
0.000136418
2.67633e-05
0.00024564
1.53927e-05
0.000331596
5.07383e-06
0.000347391
-1.65461e-05
0.00030852
-5.2596e-05
0.000230929
-5.44841e-05
0.000115303
-3.24029e-05
3.49744e-05
-1.03567e-05
-8.88311e-06
1.58446e-05
-0.000122731
1.84124e-05
-4.83002e-05
8.47751e-06
5.55597e-05
-6.10776e-06
0.000151004
7.67487e-07
0.000238765
2.01011e-05
0.000312262
5.09864e-05
0.000316506
0.000104214
0.000255292
0.000135002
0.000200142
0.000147222
0.000103083
0.000177498
4.69837e-06
-5.00509e-05
0.000217193
-0.000132104
9.37235e-06
-0.0001751
-5.30376e-06
-0.000166487
4.69465e-05
-0.000149902
0.000134419
-0.000117902
0.000206765
-5.32731e-05
0.000247633
2.02872e-05
0.000242946
0.000119591
0.000155988
0.000220576
9.91577e-05
0.000294105
2.9554e-05
0.000353369
-5.45655e-05
-0.000100961
0.000404279
-0.000130612
0.000139985
-0.000209785
7.38692e-05
-0.000278649
0.00011581
-0.000300831
0.0001566
-0.000243667
0.000149602
-0.000128209
0.000132174
2.49859e-05
8.97508e-05
0.000198794
-1.78238e-05
0.000371157
-7.32126e-05
0.000514732
-0.000114036
0.000614716
-0.000154576
-0.000168396
0.000682117
-0.000119656
0.000259641
-0.000190843
0.000145056
-0.00021296
0.000137917
-0.000152516
9.60899e-05
9.75047e-07
-4.0993e-06
0.000220069
-8.74047e-05
0.000474706
-0.000166053
0.000686039
-0.000231772
0.00082406
-0.000214917
0.000909751
-0.000205324
0.000946822
-0.000199151
-0.000182391
0.000952154
6.80343e-06
0.000252284
6.75846e-05
8.28117e-05
0.000266945
-6.70965e-05
0.000517551
-0.000164883
0.000753698
-0.000257011
0.000941534
-0.000299436
0.00104711
-0.000305307
0.00107507
-0.00030664
0.00107796
-0.000278728
0.00106715
-0.000267165
0.00103775
-0.00024896
0.000996542
-0.000229263
-0.000127114
-6.01209e-05
-5.37546e-05
-7.33594e-05
2.44908e-05
-7.82457e-05
0.000117705
-9.32143e-05
0.000220484
-0.000102779
0.000323084
-0.000102599
0.000366602
-4.35189e-05
0.000351887
1.47151e-05
0.000289679
6.22086e-05
0.000196396
9.32832e-05
8.66633e-05
0.000109705
8.67197e-05
-0.000181614
-9.68105e-05
-0.000123253
-0.000131721
-3.9342e-05
-0.000162157
6.33699e-05
-0.000195927
0.000192056
-0.000231465
0.000301089
-0.000211633
0.000359302
-0.000101733
0.000359202
1.48179e-05
0.000305207
0.000116216
0.000232603
0.000165902
0.000123236
0.000219046
0.000210019
-0.000315117
-0.000105387
-0.000281719
-0.000165121
-0.000221048
-0.00022283
-0.000126968
-0.000290008
-1.6727e-05
-0.000341711
0.000114369
-0.000342737
0.000208096
-0.00019547
0.000224944
-2.00507e-06
0.000212809
0.000128446
0.000169454
0.000209353
9.2063e-05
0.000296448
0.000302166
-0.000375545
-8.79211e-05
-0.000385104
-0.000155563
-0.000379483
-0.000228454
-0.000348925
-0.000320571
-0.000283153
-0.0004075
-0.000157576
-0.000468366
1.65001e-05
-0.000369637
9.55023e-05
-8.09675e-05
0.000108791
0.000115431
0.000111872
0.000206489
5.64815e-05
0.000351949
0.000358874
-0.00035562
-5.6341e-05
-0.000388052
-0.000123133
-0.000416129
-0.000200381
-0.000426999
-0.000309711
-0.000399523
-0.00043501
-0.000335995
-0.000531996
-0.000141624
-0.000564188
5.25726e-05
-0.000275032
8.53702e-05
8.29557e-05
9.43114e-05
0.000197631
5.4039e-05
0.000392343
0.000413255
-0.000241237
-2.82995e-05
-0.000289753
-7.46186e-05
-0.000350849
-0.000139289
-0.000404188
-0.000256386
-0.000422778
-0.00041646
-0.000394858
-0.000560007
-0.000313671
-0.000645538
-0.000113808
-0.000474933
3.11853e-06
-3.39959e-05
2.96621e-05
0.000171033
9.33821e-06
0.000412628
0.000422919
-5.07269e-06
-3.21091e-05
-5.04719e-05
-2.92199e-05
-0.000138207
-5.1557e-05
-0.000255204
-0.0001394
-0.000358969
-0.000312717
-0.00039773
-0.000521263
-0.000401802
-0.00064149
-0.000292131
-0.00058474
-0.000150033
-0.000176483
-7.94647e-05
0.000100689
-2.41448e-05
0.000357219
0.00039904
0.000264985
-7.98985e-05
0.00030279
-6.70194e-05
0.000290439
-3.91948e-05
0.000206105
-5.50437e-05
3.25e-05
-0.000139085
-0.000170621
-0.000318132
-0.000328571
-0.000483522
-0.000336879
-0.000576468
-0.000203634
-0.000310219
-8.43344e-05
-1.88859e-05
-1.99295e-05
0.000292922
0.000379499
0.000453882
-0.000129501
0.000513295
-0.000126428
0.000551161
-7.70382e-05
0.000558709
-6.25288e-05
0.00050696
-8.72784e-05
0.000386378
-0.00019756
0.000168426
-0.000265607
-6.94155e-05
-0.00033864
-7.34583e-05
-0.000306208
2.26652e-05
-0.00011549
2.83689e-05
0.000286844
0.000408549
0.000711752
-0.000159162
0.000718775
-0.000133455
0.00071731
-7.5569e-05
0.000714506
-5.96972e-05
0.000696872
-6.95788e-05
0.000636748
-0.000137404
0.00053442
-0.000163306
0.000321185
-0.00012543
0.000153155
-0.000138204
0.000113306
-7.57231e-05
7.84395e-05
0.000320961
0.000488218
0.000944659
-0.000159987
0.000936277
-0.000130977
0.000922106
-6.32166e-05
0.000894887
-3.31998e-05
0.000848543
-2.33603e-05
0.000752141
-4.09727e-05
0.000661615
-7.27581e-05
0.000571303
-3.51338e-05
0.000441303
-8.22433e-06
0.000320956
4.46053e-05
0.000237587
0.0004037
0.000727858
0.000946055
-0.000202015
0.000897645
-0.000169119
0.000867023
-0.000100878
0.000851053
-7.45731e-05
0.000840813
-5.8009e-05
0.000811546
-3.14862e-05
0.000763505
-2.8153e-05
0.00069369
3.46778e-05
0.000555625
0.000129831
0.000403948
0.000196278
0.000310046
0.000497122
0.00104044
1.94883e-05
-1.94884e-05
4.81568e-05
-2.86684e-05
8.70021e-05
-3.88453e-05
0.000134718
-4.77162e-05
0.000168989
-3.42711e-05
0.000166266
2.72376e-06
0.000123957
4.23089e-05
1.78533e-05
0.000106103
-0.000126006
0.00014386
-0.000261348
0.000135342
-0.000380693
0.000119345
9.4159e-05
-0.000474853
2.04132e-05
-3.99016e-05
4.69238e-05
-5.5179e-05
6.97709e-05
-6.16924e-05
7.36677e-05
-5.1613e-05
3.23633e-05
7.03317e-06
-8.04581e-05
0.000115545
-0.000227394
0.000189245
-0.000341384
0.000220094
-0.000430218
0.000232693
-0.000529687
0.00023481
-0.000618201
0.000207858
0.000157013
-0.000681059
5.49932e-06
-4.54009e-05
1.32849e-05
-6.29646e-05
1.31308e-05
-6.15384e-05
-1.70197e-05
-2.14626e-05
-0.000104225
9.42381e-05
-0.00021119
0.00022251
-0.000305238
0.000283292
-0.000400559
0.000315415
-0.000505805
0.000337938
-0.000611434
0.000340439
-0.000691241
0.000287661
0.000208918
-0.000743167
3.87779e-08
-4.54397e-05
-2.68917e-06
-6.02367e-05
-2.12956e-05
-4.2932e-05
-5.49596e-05
1.22014e-05
-0.000110905
0.000150183
-0.000194418
0.000306024
-0.000273829
0.000362703
-0.000355957
0.000397543
-0.000456449
0.000438429
-0.000547603
0.000431592
-0.00062453
0.00036458
0.000263042
-0.000678695
8.70377e-06
-5.41436e-05
1.39709e-05
-6.55038e-05
-1.85889e-07
-2.87753e-05
-1.70042e-05
2.90197e-05
-4.40379e-05
0.000177217
-0.000106806
0.000368792
-0.000171116
0.000427013
-0.000251476
0.000477903
-0.000345314
0.000532267
-0.000433134
0.00051941
-0.000507527
0.00043896
0.000310366
-0.00055491
4.6728e-06
-5.88164e-05
1.68744e-05
-7.77055e-05
1.97887e-05
-3.16897e-05
1.90678e-05
2.97405e-05
2.68264e-05
0.000169458
-5.17161e-06
0.00040079
-5.91249e-05
0.000480966
-0.000113208
0.000531986
-0.000171183
0.000590241
-0.00022444
0.000572665
-0.000274343
0.000488849
0.000345752
-0.000309756
1.22287e-05
-7.10451e-05
4.08355e-05
-0.000106313
7.02273e-05
-6.10817e-05
7.02714e-05
2.96962e-05
8.34016e-05
0.000156328
9.53648e-05
0.000388827
6.22743e-05
0.000514057
4.61124e-05
0.000548148
4.36384e-05
0.000592715
4.40517e-05
0.000572253
3.70357e-05
0.000495875
0.000346514
3.63221e-05
2.79211e-05
-9.89663e-05
6.65681e-05
-0.00014496
0.000119816
-0.00011433
0.000143216
6.29641e-06
0.000137267
0.000162277
0.000170336
0.000355759
0.000166649
0.000517745
0.000177102
0.000537695
0.000212557
0.000557261
0.00026626
0.000518554
0.000322442
0.000439712
0.000295108
0.000373897
4.37078e-05
-0.000142674
7.94e-05
-0.000180652
0.000135962
-0.000170892
0.000162639
-2.03807e-05
0.000148903
0.000176013
0.00019258
0.000312083
0.000208745
0.000501579
0.000247205
0.000499235
0.000314005
0.000490462
0.000406645
0.000425919
0.000497067
0.000349299
0.00021382
0.000578366
-6.49414e-05
-7.77333e-05
-0.000168506
-7.70868e-05
-0.000160291
-0.000179107
-2.59082e-05
-0.000154763
8.06632e-05
6.94411e-05
0.000148439
0.000244307
0.000202263
0.000447755
0.000275502
0.000425997
0.000353466
0.000412499
0.000464165
0.000315222
0.000589235
0.000224233
0.000107377
0.000695682
-0.000178315
0.000100582
-0.000333723
7.83213e-05
-0.0003846
-0.000128243
-0.000225024
-0.000314341
-8.28597e-05
-7.27236e-05
1.75354e-05
0.000143911
0.000158426
0.000306864
0.00025885
0.000325573
0.000374977
0.000296373
0.000496411
0.000193792
0.000613176
0.000107473
-1.07164e-05
0.000731233
-0.000235528
0.000336124
-0.000359245
0.000201463
-0.000454363
-3.41879e-05
-0.000435677
-0.00033324
-0.000267643
-0.000240756
-6.29613e-05
-6.07708e-05
9.93555e-05
0.000144547
0.000233145
0.000191784
0.000370057
0.000159457
0.000496721
6.70579e-05
0.000660321
-5.6577e-05
0.000866936
-0.000219389
-0.000537334
6.2477e-05
-0.000566567
2.92156e-05
-0.000568672
2.03891e-06
-0.000544002
-2.48184e-05
-0.000501139
-4.30649e-05
-0.000435772
-6.55435e-05
-0.000355971
-7.99074e-05
-0.000254994
-0.000101014
-0.000146738
-0.000108288
-5.40352e-05
-9.2735e-05
3.0569e-05
-8.46229e-05
3.05668e-05
-0.000716747
9.81435e-05
-0.000723391
3.57678e-05
-0.000700883
-2.06819e-05
-0.000653255
-7.27053e-05
-0.000587089
-0.000109366
-0.000508335
-0.000144302
-0.000420457
-0.00016776
-0.00032009
-0.000201376
-0.000212363
-0.000216081
-0.000105131
-0.000200056
-2.60358e-05
-0.000163777
4.53435e-06
-0.000763808
0.000118704
-0.000752889
2.46759e-05
-0.00071874
-5.50236e-05
-0.000660819
-0.000130728
-0.000588411
-0.000181802
-0.000509254
-0.000223483
-0.000432891
-0.000244156
-0.000353566
-0.000280762
-0.000275765
-0.000294006
-0.000187045
-0.000288922
-0.000116385
-0.000234633
-0.000112074
-0.000700275
0.000140171
-0.00069243
1.66672e-05
-0.000662365
-8.52072e-05
-0.000612959
-0.000180195
-0.000551763
-0.000243046
-0.000482091
-0.00029321
-0.000416814
-0.00030949
-0.000353709
-0.000343953
-0.000297033
-0.000350813
-0.00022461
-0.000361581
-0.000157225
-0.000302782
-0.000271347
-0.00056992
0.000155063
-0.000552316
-1.05222e-06
-0.000513569
-0.000124023
-0.000466393
-0.000227436
-0.000418856
-0.000290682
-0.000370871
-0.000341322
-0.000331571
-0.000348911
-0.00029241
-0.000383221
-0.000246265
-0.000397082
-0.000181442
-0.000426795
-0.000127231
-0.000359508
-0.000403752
-0.000312542
0.000157838
-0.000285749
-2.78218e-05
-0.000254207
-0.000155517
-0.000219208
-0.000262394
-0.00019513
-0.000314776
-0.000181698
-0.000354895
-0.000185428
-0.000345404
-0.00019302
-0.000375822
-0.000182929
-0.000407318
-0.000136917
-0.00047331
-0.000101095
-0.000399709
-0.000506647
4.44171e-05
0.000149858
5.99348e-05
-4.31807e-05
7.22344e-05
-0.00016764
7.86348e-05
-0.000268565
6.56227e-05
-0.000301493
3.57323e-05
-0.000324854
-8.25115e-06
-0.00030159
-5.15088e-05
-0.000332853
-8.12384e-05
-0.000377829
-7.13991e-05
-0.000483634
-4.86969e-05
-0.000425986
-0.000551894
0.000405343
0.000118486
0.000414297
-5.20372e-05
0.000407133
-0.000160367
0.000371341
-0.000232625
0.000309084
-0.00023896
0.000224007
-0.000239337
0.000132082
-0.000209461
6.43108e-05
-0.0002653
2.97555e-06
-0.00031678
-2.22132e-05
-0.000458801
-6.89354e-06
-0.000443694
-0.000552642
0.000633375
6.34868e-05
0.000650977
-6.96238e-05
0.000630767
-0.000140139
0.000571308
-0.000173149
0.00049524
-0.000162846
0.000399917
-0.000143723
0.000314365
-0.000123418
0.000225633
-0.000176452
0.000110732
-0.000202041
3.3812e-05
-0.000382136
2.0718e-05
-0.000431415
-0.000524801
0.000765495
-6.32963e-06
0.000803416
-0.000107556
0.00080897
-0.00014572
0.000779823
-0.000144058
0.000734813
-0.000117879
0.000669589
-7.83148e-05
0.000574251
-2.76128e-05
0.000403498
-5.49081e-06
0.000237361
-3.58758e-05
0.000124799
-0.000269518
5.72923e-05
-0.000363366
-0.000462758
0.000839803
-0.00011511
0.000929218
-0.000197706
0.000973808
-0.000191978
0.000979544
-0.000152757
0.000963041
-0.000105631
0.000916712
-3.59892e-05
0.000831919
5.3185e-05
0.00070218
0.000121281
0.000584239
8.13958e-05
0.000415303
-0.000100383
0.00019646
-0.000144098
-0.000265012
0.00101053
-0.000264433
0.00108025
-0.000278357
0.00110494
-0.000232493
0.00111175
-0.000178059
0.00110945
-0.000123066
0.00111653
-6.30987e-05
0.00116196
-1.5191e-05
0.00117656
7.01114e-05
0.00108914
0.000129271
0.000808155
0.000165091
0.000456878
0.000201709
0.000189988
9.87919e-05
-9.87918e-05
0.000179583
-8.07915e-05
0.000255425
-7.58414e-05
0.000302508
-4.70836e-05
0.000312237
-9.72901e-06
0.000284117
2.81202e-05
0.000226551
5.75658e-05
0.000181154
4.53973e-05
0.000122816
5.83382e-05
-1.70409e-05
0.000139857
-0.000256121
0.000239079
0.000350597
-0.000606721
8.29538e-05
-0.000181746
0.000173759
-0.000171596
0.000246161
-0.000148244
0.00029351
-9.44332e-05
0.000289691
-5.90965e-06
0.000216702
0.000101109
0.000123215
0.000151053
2.35086e-05
0.000145103
-0.000127279
0.000209126
-0.000354744
0.000367321
-0.00056641
0.000450744
0.000432878
-0.000648696
8.07025e-05
-0.000262448
0.000168792
-0.000259686
0.000236655
-0.000216106
0.000277789
-0.000135568
0.000254849
1.70309e-05
0.000184648
0.00017131
0.000108919
0.000226782
-2.58047e-05
0.000279827
-0.000231051
0.000414372
-0.000395909
0.00053218
-0.000478568
0.000533403
0.00048002
-0.000525715
5.64865e-05
-0.000318935
0.000119546
-0.000322746
0.000159913
-0.000256473
0.000171012
-0.000146666
0.000127771
6.02709e-05
7.48361e-05
0.000224245
-1.76015e-05
0.00031922
-0.000167654
0.000429879
-0.000306143
0.00055286
-0.000379385
0.000605421
-0.000428412
0.00058243
0.000520268
-0.000468666
2.03509e-05
-0.000339285
4.44402e-05
-0.000346835
5.42899e-05
-0.000266323
5.11151e-05
-0.000143491
6.68486e-06
0.000104701
-6.1304e-05
0.000292234
-0.000158356
0.000416271
-0.000247242
0.000518765
-0.00029911
0.000604729
-0.000329886
0.000636197
-0.000356158
0.0006087
0.000538858
-0.000374751
-1.04508e-05
-0.000328835
-2.78712e-05
-0.000329414
-4.50359e-05
-0.000249158
-7.13862e-05
-0.000117141
-0.000128791
0.000162106
-0.000178439
0.000341881
-0.000219152
0.000456984
-0.000242643
0.000542256
-0.000259259
0.000621345
-0.000273004
0.000649942
-0.000281043
0.000616739
0.000536492
-0.00027868
-3.2095e-05
-0.00029674
-6.28239e-05
-0.000298686
-9.81164e-05
-0.000213866
-0.000127731
-8.7527e-05
-0.000173612
0.000207988
-0.000191982
0.00036025
-0.000201773
0.000466776
-0.000201144
0.000541626
-0.000190817
0.000611017
-0.000178486
0.000637611
-0.000155869
0.000594122
0.000513276
-0.000132655
-5.66726e-05
-0.000240067
-0.000107773
-0.000247586
-0.000128837
-0.000192802
-0.000140658
-7.57058e-05
-0.000166971
0.000234301
-0.000165719
0.000358998
-0.000159732
0.000460788
-0.000135483
0.000517377
-9.50896e-05
0.000570624
-4.90304e-05
0.000591551
-3.97731e-07
0.000545489
0.000479345
3.35323e-05
-7.0532e-05
-0.000169535
-0.000118043
-0.000200075
-0.00013004
-0.000180805
-0.00013023
-7.5515e-05
-0.00012695
0.000231021
-0.000107091
0.000339139
-8.24875e-05
0.000436185
-4.36587e-05
0.000478548
1.48886e-05
0.000512076
8.1316e-05
0.000525124
0.000143296
0.000483508
0.000434006
0.000188635
-0.00011885
-5.06852e-05
-0.000165522
-0.000153403
-0.000177889
-0.000168438
-0.000154398
-9.9006e-05
-0.000109742
0.000186364
-7.0461e-05
0.000299858
-2.24727e-05
0.000388197
3.39547e-05
0.000422121
0.000116574
0.000429457
0.000200324
0.000441373
0.000270624
0.000413209
0.000371789
0.000332841
-0.000102201
5.1516e-05
-0.000135674
-0.00011993
-0.000128193
-0.000175919
-9.88238e-05
-0.000128376
-2.33554e-05
0.000110896
3.72033e-05
0.000239299
9.6247e-05
0.000329153
0.000158064
0.000360304
0.000237056
0.000350465
0.000323587
0.000354842
0.000411472
0.000325324
0.00028775
0.000495515
-7.57433e-05
0.000126884
-0.000174164
-2.15094e-05
-0.000193841
-0.000156242
-0.000149055
-0.000173162
-3.48488e-05
-3.30996e-06
6.59278e-05
0.000138523
0.000155597
0.000239484
0.000241264
0.000274637
0.000340272
0.000251459
0.000441262
0.000253853
0.000530162
0.000236427
0.00060648
0.000211438
-0.000853806
0.000247073
-0.00100933
0.00015551
-0.00111377
0.000104423
-0.00115163
3.78363e-05
-0.00115278
1.12272e-06
-0.00112133
-3.14755e-05
-0.00106152
-5.98517e-05
-0.000979007
-8.26069e-05
-0.000859156
-0.000120082
-0.000690439
-0.000169288
-0.00040841
-0.000283471
-0.000411858
-0.000712957
0.00031132
-0.000746509
0.000189041
-0.000743617
0.000101512
-0.000722191
1.63939e-05
-0.000683457
-3.76368e-05
-0.000628957
-8.60084e-05
-0.000551741
-0.000137106
-0.000467169
-0.000167228
-0.000378952
-0.000208382
-0.000286575
-0.000262047
-0.000175119
-0.000397279
-0.000592169
-0.000561849
0.000347435
-0.000579771
0.000206926
-0.000589064
0.000110763
-0.000596382
2.36757e-05
-0.000578668
-5.53899e-05
-0.000521178
-0.000143563
-0.000440048
-0.000218315
-0.000340999
-0.000266355
-0.000236825
-0.000312651
-0.000134303
-0.000364916
-7.06935e-05
-0.000463031
-0.000662853
-0.000495351
0.000374104
-0.000508647
0.000220188
-0.00052146
0.000123528
-0.000529959
3.21284e-05
-0.000502463
-8.2926e-05
-0.000449038
-0.000197052
-0.000376509
-0.000290944
-0.000289345
-0.000353651
-0.00019721
-0.000404956
-0.000100092
-0.000462511
-3.13216e-05
-0.000533694
-0.000691477
-0.000388223
0.000387565
-0.000414227
0.000246165
-0.000439865
0.000149123
-0.000438916
3.1132e-05
-0.000399708
-0.000122172
-0.000340827
-0.000255987
-0.000278084
-0.000353787
-0.000214716
-0.000417199
-0.000151262
-0.000468667
-8.43578e-05
-0.000529992
-1.96106e-05
-0.000600694
-0.000707229
-0.000286778
0.000395656
-0.000307255
0.000266623
-0.000315826
0.000157653
-0.000291464
6.72538e-06
-0.000243487
-0.000170173
-0.000185838
-0.000313659
-0.000139031
-0.000400638
-0.000105791
-0.00045053
-8.17559e-05
-0.000492761
-5.10694e-05
-0.00056087
-9.07997e-07
-0.000651956
-0.000703114
-0.000132017
0.000395012
-0.000143779
0.000278368
-0.000142776
0.00015662
-0.000115793
-2.02678e-05
-7.74213e-05
-0.0002085
-4.45723e-05
-0.000346404
-2.27337e-05
-0.000422313
-1.57645e-05
-0.000457269
-1.4974e-05
-0.000493205
-3.2096e-05
-0.000543405
-9.2389e-06
-0.00067538
-0.000710302
4.8384e-05
0.000380156
5.97361e-05
0.000267008
8.0588e-05
0.000135777
0.00011069
-5.0308e-05
0.000129461
-0.000227144
0.000127227
-0.000343995
0.000107768
-0.000402654
7.30497e-05
-0.000422347
4.20763e-05
-0.000462033
-6.485e-06
-0.000494729
-2.98458e-05
-0.000654354
-0.000741108
0.000230404
0.000338386
0.000272298
0.000225124
0.000307212
0.000100901
0.000335193
-7.8229e-05
0.000328135
-0.000220019
0.000294821
-0.000310615
0.000239185
-0.000346959
0.000173603
-0.000356727
9.55064e-05
-0.000383911
2.06415e-05
-0.000419854
-1.3523e-05
-0.000624913
-0.000755326
0.00039612
0.000275113
0.000451157
0.000170109
0.00050077
5.13192e-05
0.000520444
-9.78797e-05
0.000491484
-0.000191048
0.000438269
-0.000257393
0.00036244
-0.000271127
0.000280152
-0.000274437
0.000179339
-0.000283097
9.38384e-05
-0.000334361
3.50907e-05
-0.000572964
-0.000716891
0.000573636
0.000197
0.000648196
9.55641e-05
0.000695212
4.31325e-06
0.000682696
-8.53608e-05
0.000627491
-0.000135843
0.000554929
-0.000184832
0.000470907
-0.000187106
0.000394022
-0.00019756
0.000324971
-0.000214103
0.000275712
-0.000285478
0.000179842
-0.000486247
-0.000532632
0.000683865
0.000119629
0.000749844
2.95995e-05
0.000779066
-2.49029e-05
0.000757065
-6.33702e-05
0.000715699
-9.45228e-05
0.000652601
-0.00012188
0.000594805
-0.000129745
0.000554199
-0.000158383
0.000528246
-0.00019172
0.000467068
-0.000231884
0.00027073
-0.000313223
-0.000255449
4.47797e-05
-4.47797e-05
8.4871e-05
-4.00913e-05
0.000120996
-3.61252e-05
0.00014681
-2.58135e-05
0.000145761
1.04823e-06
0.000140441
5.32031e-06
0.00013954
9.01315e-07
0.000140001
-4.61465e-07
0.000119481
2.05198e-05
7.6726e-05
4.27554e-05
2.26778e-05
5.40482e-05
8.50144e-05
-6.23367e-05
4.63409e-05
-9.11207e-05
8.45079e-05
-7.82583e-05
8.48487e-05
-3.6466e-05
7.52525e-05
-1.62173e-05
6.05742e-05
1.57265e-05
4.22774e-05
2.36171e-05
1.87612e-05
2.44175e-05
-1.21638e-05
3.04635e-05
-6.33203e-05
7.16763e-05
-0.00014314
0.000122575
-0.000234879
0.000145787
0.000134785
-0.000284649
6.05096e-06
-9.71716e-05
9.04526e-06
-8.12526e-05
-1.43626e-05
-1.30582e-05
-2.94533e-05
-1.12671e-06
-1.37085e-05
-1.83867e-08
4.43568e-06
5.47295e-06
-9.47079e-06
3.83239e-05
-7.49517e-05
9.59443e-05
-0.000166878
0.000163603
-0.000229804
0.000185501
-0.000259962
0.000175945
0.000153154
-0.000278331
-2.42677e-05
-7.29039e-05
-5.26765e-05
-5.28438e-05
-7.63058e-05
1.0571e-05
-8.37268e-05
6.29433e-06
-8.76209e-05
3.87566e-06
-9.67462e-05
1.45982e-05
-0.000134939
7.6517e-05
-0.000194025
0.00015503
-0.00022777
0.000197347
-0.000241764
0.000199494
-0.000249944
0.000184125
0.000159314
-0.000256104
-2.24536e-05
-5.04502e-05
-4.49302e-05
-3.03673e-05
-8.11685e-05
4.68093e-05
-0.000117901
4.30268e-05
-0.000138495
2.44695e-05
-0.000151379
2.74819e-05
-0.000161283
8.64212e-05
-0.000173786
0.000167533
-0.000185668
0.000209229
-0.000194072
0.000207899
-0.000197756
0.000187809
0.000157727
-0.000196169
-2.91452e-05
-2.1305e-05
-3.98555e-05
-1.9657e-05
-5.85836e-05
6.55374e-05
-9.9282e-05
8.37251e-05
-0.0001298
5.49876e-05
-0.000145819
4.35005e-05
-0.000141004
8.16057e-05
-0.000131601
0.000158131
-0.000133515
0.000211143
-0.000136112
0.000210495
-0.00013416
0.000185857
0.000154239
-0.000130672
-2.96991e-05
8.39405e-06
-3.9309e-05
-1.00471e-05
-3.51366e-05
6.1365e-05
-6.10938e-05
0.000109682
-9.66027e-05
9.04964e-05
-0.000114461
6.1359e-05
-0.000104129
7.12732e-05
-6.97348e-05
0.000123737
-4.91347e-05
0.000190543
-4.18836e-05
0.000203244
-3.59507e-05
0.000179924
0.000161268
-4.29793e-05
-5.25459e-05
6.09399e-05
-6.52538e-05
2.66069e-06
-3.90317e-05
3.51429e-05
-2.47242e-05
9.53748e-05
-3.93477e-05
0.00010512
-5.05536e-05
7.25649e-05
-5.24682e-05
7.31875e-05
-1.75189e-05
8.87859e-05
3.51453e-05
0.00013788
5.52053e-05
0.000183195
5.1857e-05
0.000183299
0.000181439
3.17259e-05
-5.72056e-05
0.000118145
-9.66878e-05
4.21429e-05
-8.69178e-05
2.53729e-05
-3.18183e-05
4.02747e-05
1.57463e-05
5.75541e-05
4.62725e-05
4.20357e-05
5.84547e-05
6.09981e-05
7.1239e-05
7.60343e-05
0.000106434
0.000102873
0.000135879
0.000154125
0.000146122
0.000173515
0.000197808
0.00013037
-9.58699e-05
0.000214026
-0.000113154
5.94214e-05
-0.000116647
2.88451e-05
-6.47032e-05
-1.17361e-05
2.24532e-05
-2.97079e-05
0.000104288
-3.98554e-05
0.000178526
-1.29635e-05
0.000203592
5.19819e-05
0.000205893
0.000102173
0.000224104
0.00013776
0.000253071
0.000146086
0.000183708
0.000268549
1.38096e-05
0.000201479
4.26857e-05
3.03143e-05
7.51593e-05
-5.01467e-06
9.35866e-05
-3.22113e-05
0.0001119
-5.08825e-05
0.000149431
-8.05175e-05
0.00021866
-8.33005e-05
0.000281598
-8.48402e-06
0.000315882
7.25973e-05
0.000331317
0.000127507
0.000346171
0.000135109
0.000161014
0.000371179
0.000283443
-0.000104336
0.000395525
-0.000100869
0.000468208
-0.000100449
0.000497768
-8.24822e-05
0.000488265
-5.83841e-05
0.000418743
-2.36756e-05
0.000345815
-1.95011e-05
0.000338997
-3.59602e-06
0.000365069
5.26126e-05
0.000383169
0.000120262
0.000391512
0.000135998
0.00040822
0.000150553
-0.000169928
0.000107592
-0.000238106
6.8178e-05
-0.000285884
4.77776e-05
-0.000320303
3.4419e-05
-0.000330117
9.81326e-06
-0.000316081
-1.40358e-05
-0.000275583
-4.04983e-05
-0.000209333
-6.625e-05
-0.000113807
-9.55261e-05
-1.95867e-05
-9.42203e-05
4.44542e-05
-6.4041e-05
4.44541e-05
-0.00029725
0.000120193
-0.000320214
9.11418e-05
-0.000342183
6.97465e-05
-0.000354031
4.62663e-05
-0.000359452
1.52346e-05
-0.000354333
-1.91555e-05
-0.000330432
-6.43998e-05
-0.000290403
-0.000106279
-0.000227327
-0.000158602
-0.000143593
-0.000177955
-1.93019e-05
-0.000188332
2.51522e-05
-0.000290541
0.000132403
-0.000306331
0.000106932
-0.000322673
8.60877e-05
-0.000333926
5.75196e-05
-0.000339847
2.11549e-05
-0.000338341
-2.06617e-05
-0.000318786
-8.39553e-05
-0.000290186
-0.00013488
-0.000248551
-0.000200239
-0.000187827
-0.00023868
-8.81518e-05
-0.000288009
-6.3e-05
-0.000256623
0.000132922
-0.000258877
0.000109185
-0.000259805
8.70159e-05
-0.000257729
5.54427e-05
-0.000247389
1.08153e-05
-0.000236319
-3.17322e-05
-0.000221114
-9.91606e-05
-0.000206641
-0.000149354
-0.000183744
-0.000223137
-0.000151868
-0.000270556
-9.65618e-05
-0.000343317
-0.000159568
-0.00018876
0.000125513
-0.000182507
0.000102931
-0.000171519
7.60271e-05
-0.00015521
3.91333e-05
-0.000132864
-1.15309e-05
-0.000112024
-5.25726e-05
-9.41672e-05
-0.000117017
-8.92757e-05
-0.000154246
-8.38952e-05
-0.000228518
-7.13661e-05
-0.000283086
-4.16127e-05
-0.000373073
-0.000201212
-0.000126629
0.00012147
-0.000130933
0.000107236
-0.000130078
7.51717e-05
-0.000111443
2.04983e-05
-8.32093e-05
-3.97653e-05
-5.36058e-05
-8.21764e-05
-3.04215e-05
-0.000140202
-2.37417e-05
-0.000160927
-2.46246e-05
-0.000227636
-1.90729e-05
-0.000288638
-4.28369e-07
-0.000391729
-0.000201682
-6.23392e-05
0.00014083
-8.84549e-05
0.000133352
-0.000106259
9.29758e-05
-0.000102698
1.69357e-05
-7.89395e-05
-6.35242e-05
-4.00437e-05
-0.000121073
-8.57607e-06
-0.00017167
6.14515e-06
-0.000175648
7.53974e-06
-0.00022903
1.78656e-05
-0.000298964
3.35792e-05
-0.000407478
-0.000168068
-1.57286e-06
0.000174146
-3.88983e-05
0.000170676
-6.46704e-05
0.000118747
-6.52368e-05
1.75015e-05
-4.54979e-05
-8.32633e-05
-1.24691e-05
-0.000154102
1.77439e-05
-0.000201883
2.77304e-05
-0.000185634
2.08732e-05
-0.000222173
3.69613e-05
-0.000315053
6.39537e-05
-0.000434521
-0.000104004
0.00010055
0.000204768
7.10287e-05
0.000200818
4.66242e-05
0.000143304
3.496e-05
2.91197e-05
4.81324e-05
-9.64689e-05
5.96767e-05
-0.000165658
6.42651e-05
-0.000206472
5.9441e-05
-0.00018081
3.99137e-05
-0.000202645
4.81153e-05
-0.000323254
4.99706e-05
-0.000436457
-5.38815e-05
0.000277676
0.00019734
0.000290162
0.00019051
0.000297381
0.000138456
0.000274028
5.37548e-05
0.000238729
-6.1154e-05
0.000207759
-0.000134974
0.000167746
-0.000166574
0.000123621
-0.000136701
8.43332e-05
-0.000163358
7.63719e-05
-0.000315294
4.64605e-05
-0.000406659
-7.20982e-06
0.000405898
0.000163914
0.000434074
0.000163822
0.000463176
0.00011124
0.000468653
5.08502e-05
0.000412759
-2.86167e-06
0.000340267
-6.10689e-05
0.000254504
-8.00591e-05
0.000180616
-6.24564e-05
0.000132263
-0.000115197
9.816e-05
-0.000281255
4.78616e-05
-0.00035646
4.07515e-05
0.000446407
0.000128147
0.000491871
0.000118695
0.000521481
8.13753e-05
0.000520512
5.1461e-05
0.000487179
3.06747e-05
0.000427697
-1.58343e-07
0.00035669
-5.7825e-06
0.000314108
-1.48795e-05
0.000269942
-6.84252e-05
0.00015706
-0.000168612
-7.24257e-07
-0.00019868
3.96754e-05
0.000445199
-0.000276999
3.8555e-05
0.000805378
-0.000315467
0.00103496
-0.000336165
0.00117591
-0.00035319
0.00123709
-0.000375065
0.0012308
-0.000355627
0.00117788
-0.000309397
0.00110712
-0.000288952
0.00105028
-0.000275245
0.00100769
-0.000257199
0.000975255
-0.000229807
-0.000205791
0.000952994
0.00134204
-0.000368269
-0.00128732
0.00131731
-0.000342168
0.0012619
-0.000320624
0.00118693
-0.000299396
0.00108663
-0.000266457
0.00100188
-0.000234904
0.000952842
-0.000194637
0.000931147
-0.000174119
0.000924816
-0.000146943
0.000918537
-0.000127339
0.000909147
-9.53109e-05
-6.82337e-05
0.000898775
0.000954785
-0.000301721
-0.000957014
0.000943616
-0.000262854
0.000939275
-0.000243569
0.000938901
-0.000216754
0.000941998
-0.000189165
0.000951244
-0.000167062
0.000967944
-0.00014652
0.00098946
-0.000151896
0.00100517
-0.000140793
0.00101695
-0.000136212
0.00102078
-0.000113956
-9.2124e-05
0.00101591
0.000964511
-0.000959555
-0.000247401
0.000981853
-0.000224618
0.00100362
-0.000220426
0.00103023
-0.00021366
0.00105912
-0.00020276
0.00109363
-0.000196304
0.00112073
-0.0001824