/*--------------------------------*- C++ -*----------------------------------*\
| =========                 |                                                 |
| \\      /  F ield         | OpenFOAM: The Open Source CFD Toolbox           |
|  \\    /   O peration     | Version:  2212                                  |
|   \\  /    A nd           | Website:  www.openfoam.com                      |
|    \\/     M anipulation  |                                                 |
\*---------------------------------------------------------------------------*/
FoamFile
{
    version     2.0;
    format      ascii;
    arch        "LSB;label=32;scalar=64";
    class       surfaceScalarField;
    location    "1.5";
    object      phi.air;
}
// * * * * * * * * * * * * * * * * * * * * * * * * * * * * * * * * * * * * * //

dimensions      [0 3 -1 0 0 0 0];

oriented        oriented;

internalField   nonuniform List<scalar> 
6392
(
3.8626e-05
-3.8626e-05
8.14864e-05
-4.28604e-05
0.000111778
-3.0292e-05
0.000128083
-1.63049e-05
0.000138365
-1.02814e-05
0.00015257
-1.42055e-05
0.000161016
-8.44589e-06
0.000147367
1.36491e-05
0.00012128
2.60868e-05
6.67094e-05
5.45707e-05
-7.3866e-05
0.000140575
0.00023801
-0.000311876
4.8077e-05
-8.67029e-05
9.33456e-05
-8.8129e-05
0.000120022
-5.69688e-05
0.000126622
-2.29043e-05
0.000113235
3.10496e-06
9.48892e-05
4.14066e-06
7.1246e-05
1.51972e-05
2.33377e-05
6.15575e-05
-5.53086e-05
0.000104733
-0.000189068
0.00018833
-0.000361242
0.00031275
0.000343225
-0.000466457
4.52472e-05
-0.00013195
8.66541e-05
-0.000129536
0.000108245
-7.85593e-05
0.000103958
-1.86174e-05
7.66449e-05
3.04178e-05
3.25154e-05
4.82702e-05
-1.3833e-05
6.15456e-05
-5.39268e-05
0.000101651
-0.000112201
0.000163008
-0.000215336
0.000291465
-0.000319237
0.000416651
0.000417886
-0.000393898
4.31355e-05
-0.000175086
8.09122e-05
-0.000167313
0.000101634
-9.92811e-05
9.37221e-05
-1.07055e-05
5.9104e-05
6.50359e-05
1.16937e-05
9.56805e-05
-2.92134e-05
0.000102453
-5.63138e-05
0.000128752
-9.97135e-05
0.000206407
-0.000159756
0.000351508
-0.000216964
0.000473859
0.000473163
-0.000272241
2.92473e-05
-0.000204333
5.52519e-05
-0.000193317
7.52333e-05
-0.000119263
7.40967e-05
-9.5689e-06
3.74227e-05
0.00010171
-1.04595e-05
0.000143563
-4.32405e-05
0.000135234
-5.43036e-05
0.000139815
-7.90327e-05
0.000231136
-9.16773e-05
0.000364152
-0.000100957
0.000483139
0.000492304
-0.000120099
-1.05784e-06
-0.000203275
9.68968e-06
-0.000204065
2.14726e-05
-0.000131045
2.49919e-05
-1.30882e-05
7.59148e-06
0.00011911
-1.87994e-05
0.000169954
-3.92035e-05
0.000155638
-5.86793e-05
0.000159291
-7.50882e-05
0.000247545
-5.51754e-05
0.000344239
-1.93353e-05
0.000447299
0.000470088
2.88089e-06
-3.23358e-05
-0.000170939
-4.9357e-05
-0.000187043
-4.87201e-05
-0.000131682
-3.56439e-05
-2.61644e-05
-3.48912e-05
0.000118358
-4.35899e-05
0.000178652
-5.97275e-05
0.000171775
-7.59722e-05
0.000175535
-7.13133e-05
0.000242886
-2.82239e-05
0.00030115
4.33415e-05
0.000375734
0.000411043
0.000102387
-6.61864e-05
-0.000104753
-0.00010445
-0.00014878
-0.000122883
-0.00011325
-0.00011401
-3.50368e-05
-9.62445e-05
0.000100592
-8.70503e-05
0.000169458
-8.8408e-05
0.000173133
-8.45772e-05
0.000171705
-6.08048e-05
0.000219115
-1.04114e-05
0.000250756
6.41005e-05
0.000301222
0.000332985
0.000142159
-7.98799e-05
-2.4873e-05
-0.000135789
-9.28706e-05
-0.000182176
-6.68631e-05
-0.000196923
-2.02905e-05
-0.000169075
7.2743e-05
-0.000145143
0.000145535
-0.00011963
0.000147659
-8.90738e-05
0.000141287
-4.41253e-05
0.000174456
2.91657e-05
0.000177631
0.000115841
0.000214579
0.000242046
0.000206779
-8.44842e-05
5.96112e-05
-0.000147607
-2.97493e-05
-0.000209286
-5.19119e-06
-0.000231694
2.08859e-06
-0.000201689
4.27323e-05
-0.000146693
9.07964e-05
-8.99233e-05
9.15209e-05
-3.44496e-05
8.70069e-05
3.40101e-05
0.000108344
0.000105658
0.000109289
0.000191347
0.000132138
0.000139852
0.000294913
-3.48324e-05
9.44564e-05
-0.000109264
4.45886e-05
-0.000153396
3.88123e-05
-0.000174485
2.30806e-05
-0.000153678
2.226e-05
-8.60017e-05
2.43915e-05
-1.02067e-05
1.78581e-05
6.12092e-05
1.83486e-05
0.000139858
3.36921e-05
0.000204007
5.20265e-05
0.000286534
6.04671e-05
4.76871e-05
0.000388904
5.01174e-05
4.45844e-05
2.74297e-05
6.85492e-05
3.64623e-05
2.9992e-05
5.65869e-05
1.83728e-06
8.85523e-05
-1.15052e-05
0.000135595
-2.44376e-05
0.0001879
-3.57714e-05
0.00024291
-3.72928e-05
0.00030419
-2.73602e-05
0.000370021
-1.17621e-05
0.000432721
4.68181e-06
0.000489909
3.80974e-06
-0.00052133
0.000209454
-0.000631242
0.000109911
-0.000698024
6.67808e-05
-0.00070889
1.08644e-05
-0.000677699
-3.11927e-05
-0.000603924
-7.37785e-05
-0.000486583
-0.000117349
-0.000337061
-0.000149533
-0.000180292
-0.00015678
-2.36004e-05
-0.0001567
8.15578e-05
-0.000105159
8.15575e-05
-0.000537354
0.00028035
-0.000605425
0.000177982
-0.000650755
0.00011211
-0.000665405
2.55116e-05
-0.000648358
-4.8244e-05
-0.000600364
-0.000121785
-0.000507756
-0.000209983
-0.000380947
-0.000276401
-0.000231052
-0.000306793
-8.05231e-05
-0.000307386
1.57105e-05
-0.000201452
9.72684e-05
-0.000462608
0.00034906
-0.000527141
0.000242515
-0.000572046
0.000157014
-0.000596483
4.99464e-05
-0.000600448
-4.42851e-05
-0.000577052
-0.000145198
-0.000513445
-0.000273636
-0.000409825
-0.000380145
-0.000275845
-0.000441095
-0.000130218
-0.000453786
-2.6745e-05
-0.000305601
7.05441e-05
-0.000338973
0.000415792
-0.000403761
0.000307303
-0.000447211
0.000200464
-0.000489353
9.20863e-05
-0.000523629
-1.00147e-05
-0.000525975
-0.00014286
-0.000487956
-0.000311676
-0.000409213
-0.000458991
-0.000306268
-0.000544445
-0.000178847
-0.000582718
-8.23476e-05
-0.000405669
-1.25728e-05
-0.000152525
0.000448219
-0.000206629
0.000361406
-0.000265954
0.000259789
-0.000327617
0.000153747
-0.000374489
3.68546e-05
-0.000399542
-0.000117804
-0.000406174
-0.000305031
-0.000365018
-0.000500145
-0.000293051
-0.000616713
-0.000203195
-0.000675154
-0.000136233
-0.000487324
-0.000169222
7.3783e-06
0.000443722
-1.55483e-05
0.000384333
-6.19496e-05
0.00030619
-0.000118688
0.000210484
-0.000165045
8.32124e-05
-0.000204295
-7.85518e-05
-0.000246503
-0.00026282
-0.000258042
-0.000488592
-0.000236588
-0.000638368
-0.000178378
-0.000738007
-0.000135062
-0.000571633
-0.000342774
0.000137962
0.000408146
0.000150781
0.000371515
0.000132165
0.000324806
9.54151e-05
0.000247236
6.13395e-05
0.000117289
2.96956e-05
-4.69106e-05
-1.79337e-05
-0.000215191
-7.28666e-05
-0.000433658
-0.000147663
-0.000563836
-0.000158522
-0.000734232
-0.000140949
-0.000645447
-0.000452513
0.000204804
0.0003455
0.000245383
0.000330935
0.000268152
0.000302039
0.00028354
0.00023185
0.000277303
0.000123525
0.000253792
-2.34033e-05
0.00019574
-0.000157141
0.00011932
-0.000357238
-8.07236e-06
-0.000436452
-0.000101432
-0.000647241
-0.000141013
-0.000659422
-0.000540038
0.000299148
0.000253131
0.000367683
0.0002624
0.000430795
0.000238928
0.000485975
0.00017667
0.000496421
0.000113077
0.000459631
1.33847e-05
0.000394318
-9.18296e-05
0.000279968
-0.000242888
0.000127642
-0.000284135
-1.56e-05
-0.000507983
-0.000123091
-0.000635692
-0.000589231
0.000399548
0.000148405
0.000481534
0.000180414
0.000552391
0.000168075
0.000595787
0.000133279
0.000613179
9.56862e-05
0.000607116
1.94472e-05
0.000560162
-4.48867e-05
0.00043572
-0.000118508
0.000295445
-0.000144154
0.000164469
-0.000382553
-2.95042e-05
-0.000557725
-0.000507916
0.000489164
5.32083e-05
0.000575771
9.43977e-05
0.000643121
0.000100283
0.000707231
6.76652e-05
0.000768177
3.217e-05
0.000787931
-3.85001e-06
0.000760746
-2.35433e-05
0.000675123
-4.091e-05
0.000597752
-7.83757e-05
0.000454028
-0.000269805
0.000137519
-0.000397715
-0.000164454
0.000565596
-9.75727e-06
0.000668215
-9.72342e-06
0.00076637
-3.12102e-05
0.000851557
-6.96069e-05
0.000911102
-9.03866e-05
0.00093281
-8.95155e-05
0.00093478
-8.33462e-05
0.000912586
-6.84291e-05
0.00084412
-5.07672e-05
0.000583765
-5.9267e-05
0.000122033
-5.15605e-05
0.000343284
6.46007e-05
-6.46007e-05
0.00011291
-4.83093e-05
0.000148821
-3.59109e-05
0.000147987
8.33515e-07
0.000119382
2.86053e-05
7.7317e-05
4.20652e-05
3.53097e-05
4.20072e-05
4.73864e-07
3.48359e-05
-2.92589e-05
2.97328e-05
-9.05368e-05
6.12778e-05
-0.000225349
0.000134812
0.000227367
-0.000452716
7.05794e-05
-0.00013518
0.000134065
-0.000111795
0.000170462
-7.23079e-05
0.000165035
6.26e-06
0.000126608
6.7033e-05
7.17514e-05
9.69214e-05
4.21136e-07
0.000113337
-7.4225e-05
0.000109482
-0.000167231
0.000122739
-0.000313876
0.000207923
-0.000489619
0.000310555
0.00034305
-0.000605302
8.08796e-05
-0.00021606
0.000150022
-0.000180937
0.000177007
-9.92929e-05
0.000168669
1.45984e-05
0.000121862
0.000113839
5.13522e-05
0.000167431
-2.54696e-05
0.000190159
-0.000118273
0.000202285
-0.000227339
0.000231805
-0.00033872
0.000319304
-0.000437986
0.000409821
0.000439681
-0.000534618
7.62947e-05
-0.000292354
0.000132422
-0.000237065
0.000144951
-0.000111822
0.000136476
2.30734e-05
0.000101162
0.000149153
3.89307e-05
0.000229663
-2.82755e-05
0.000257365
-0.00010797
0.000281979
-0.000191087
0.000314922
-0.000254728
0.000382945
-0.000315929
0.000471022
0.000513305
-0.000389552
4.62696e-05
-0.000338624
6.22176e-05
-0.000253013
4.37915e-05
-9.33955e-05
2.24908e-05
4.43741e-05
-4.08209e-06
0.000175726
-3.81401e-05
0.000263721
-8.50699e-05
0.000304295
-0.000130939
0.000327848
-0.000164394
0.000348377
-0.000169619
0.00038817
-0.000151187
0.00045259
0.000509945
-0.000147827
-2.15678e-05
-0.000317056
-6.45149e-05
-0.000210066
-9.60136e-05
-6.18968e-05
-0.000104741
5.3101e-05
-0.000110276
0.000181262
-0.000111209
0.000264654
-0.000119565
0.000312651
-0.000124266
0.000332549
-0.000126287
0.000350397
-0.000106352
0.000368235
-4.52322e-05
0.00039147
0.00043711
2.7603e-05
-4.70788e-05
-0.000269977
-0.000106716
-0.000150428
-0.000141003
-2.76104e-05
-0.00014268
5.47785e-05
-0.000128226
0.000166807
-0.000105382
0.00024181
-9.60581e-05
0.000303327
-9.20488e-05
0.00032854
-8.71424e-05
0.000345491
-6.73893e-05
0.000348482
-1.90289e-05
0.00034311
0.000365127
5.29546e-05
-6.48411e-05
-0.000205136
-0.000132753
-8.25161e-05
-0.000168389
8.02553e-06
-0.000162517
4.89064e-05
-0.000131262
0.000135552
-9.89122e-05
0.000209461
-8.59597e-05
0.000290375
-8.34112e-05
0.000325991
-8.57452e-05
0.000347824
-8.54137e-05
0.000348151
-7.90194e-05
0.000336715
0.000318985
-3.28776e-05
-9.80693e-05
-0.000107067
-0.000186381
5.79511e-06
-0.000233443
5.5088e-05
-0.000235276
5.07392e-05
-0.000218602
0.000118878
-0.000204919
0.000195778
-0.000197795
0.000283251
-0.000207081
0.000335277
-0.000218721
0.000359465
-0.000221821
0.000351253
-0.000208225
0.000323134
0.000253741
-0.000142926
-0.000182528
7.54596e-05
-0.000254621
7.78877e-05
-0.000297446
9.79129e-05
-0.000319028
7.23211e-05
-0.000332784
0.000132638
-0.000330384
0.000193397
-0.000302046
0.000254976
-0.000270656
0.000303996
-0.000230573
0.000319535
-0.000168661
0.0002897
-5.16329e-05
0.000206677
7.81786e-05
0.000123712
-0.000139956
0.000216458
-0.000225638
0.000163651
-0.000268064
0.000140937
-0.000284037
8.83831e-05
-0.000274687
0.000123932
-0.000246753
0.000166739
-0.00017698
0.000187572
-6.83189e-05
0.000198948
5.36068e-05
0.000201159
0.000204525
0.000141494
0.000387172
1.9742e-05
-0.000105806
0.000552266
-1.76012e-05
0.000225366
-3.8843e-05
0.000194241
-5.86436e-05
0.000172108
-8.94041e-05
0.000127972
-7.90063e-05
0.000118793
-1.98779e-05
0.000109076
8.2528e-05
8.63071e-05
0.000230189
5.19885e-05
0.000399122
2.88669e-05
0.000557411
-4.04483e-05
0.000676324
-0.000133338
0.000758838
-0.000216201
-0.000674124
0.000221408
-0.000798274
0.000124144
-0.000870085
7.17926e-05
-0.000865291
-4.842e-06
-0.000796772
-6.86247e-05
-0.0006658
-0.000131169
-0.000477827
-0.000188258
-0.00025164
-0.000226452
-2.0481e-06
-0.000249741
0.000191611
-0.000193747
0.000166712
2.49168e-05
0.000166815
-0.000695187
0.000311291
-0.000785587
0.000214538
-0.000835878
0.000122053
-0.000835031
-5.81167e-06
-0.000781646
-0.000122315
-0.000692493
-0.000220715
-0.000562249
-0.000318803
-0.000407719
-0.000381083
-0.000233162
-0.000424229
-4.44388e-05
-0.000382216
2.18885e-05
-4.09757e-05
0.000190553
-0.000629143
0.000405815
-0.000725839
0.000311213
-0.000780952
0.000177019
-0.000786619
-6.27214e-07
-0.0007337
-0.00017585
-0.000663119
-0.00029158
-0.000566239
-0.000415513
-0.000453849
-0.000493257
-0.000325021
-0.000552854
-0.000188719
-0.000518479
-1.619e-05
-0.000213953
0.000179573
-0.000467136
0.000483392
-0.000540045
0.000384054
-0.000568501
0.00020519
-0.000563953
-5.68229e-06
-0.000530298
-0.000209582
-0.000473296
-0.000348202
-0.000400995
-0.000487478
-0.000322765
-0.000571267
-0.000209205
-0.000666217
-7.48637e-05
-0.000652725
4.18425e-05
-0.000332678
0.000229077
-0.000159164
0.000494727
-0.000173061
0.000397928
-0.000183149
0.000215209
-0.000193494
4.83202e-06
-0.00021379
-0.000188711
-0.000217684
-0.000344151
-0.000200666
-0.000504528
-0.000179173
-0.000592675
-0.000105657
-0.000739673
5.43434e-06
-0.000763832
5.37818e-05
-0.000384019
0.000290028
7.37612e-05
0.000448569
0.000103729
0.000367982
0.000116504
0.000202658
0.000103673
1.8341e-05
6.46214e-05
-0.000149549
1.34473e-05
-0.00029343
-4.02115e-05
-0.000450934
-7.92707e-05
-0.000553606
-3.54866e-05
-0.000783451
5.53158e-05
-0.00085474
6.02538e-05
-0.000392523
0.000358461
0.000132219
0.000369305
0.000204284
0.000295943
0.00025074
0.000156496
0.000251626
1.80046e-05
0.000213211
-0.000111319
0.00013779
-0.000218375
4.57719e-05
-0.000358972
-2.30832e-05
-0.000484753
-1.62315e-05
-0.000790309
4.04595e-05
-0.000911717
6.38838e-05
-0.000419104
0.000430509
7.09692e-05
0.000265458
0.000188711
0.000178204
0.000271185
7.41944e-05
0.000289346
3.0726e-07
0.000261303
-8.3302e-05
0.00018663
-0.000143896
7.68103e-05
-0.000249214
-1.74015e-05
-0.000390547
-9.38665e-05
-0.000713863
-0.00012711
-0.000879249
-3.32881e-05
-0.000517244
0.000398953
-2.49763e-06
0.000124992
0.000165194
9.87097e-06
0.000286685
-4.82823e-05
0.000348609
-6.29048e-05
0.000352563
-8.96183e-05
0.000315863
-0.000109258
0.000223319
-0.000158084
9.75897e-05
-0.000265489
-7.61191e-05
-0.000540392
-0.000252323
-0.000704237
-0.000174191
-0.000601432
0.000218763
0.000290048
-4.65061e-05
0.000405041
-0.000115873
0.00048628
-0.000141314
0.000565157
-0.00015068
0.00060819
-0.000137322
0.000615116
-0.00011891
0.000564457
-0.000109706
0.00040979
-0.000113073
7.40825e-05
-0.000206736
-0.000285381
-0.000346127
-0.000328165
-0.000564913
-0.000112097
0.000656252
-0.000178947
0.000711346
-0.00020064
0.000739544
-0.000200174
0.000741549
-0.000182946
0.000742534
-0.000160084
0.000747177
-0.000135042
0.000739677
-0.000105342
0.000702976
-7.43808e-05
0.000549124
-5.0283e-05
0.000266617
-6.20268e-05
5.19283e-06
-0.000309073
-0.000103202
0.000818029
-0.000248978
0.000864425
-0.000242907
0.00089363
-0.000221121
0.000904342
-0.000187917
0.000899218
-0.000157236
0.000879168
-0.000119555
0.000860176
-9.31001e-05
0.000830664
-4.35293e-05
0.000786325
3.26049e-07
0.000689964
4.09919e-05
0.000327482
5.49782e-05
0.00024227
0.000158591
-0.000158584
0.000293854
-0.000135262
0.000416954
-0.000123099
0.000522926
-0.000105971
0.000608817
-8.58917e-05
0.000665109
-5.62933e-05
0.000690053
-2.49466e-05
0.00067738
1.26713e-05
0.000628104
4.92754e-05
0.000546605
8.14987e-05
0.000451158
9.54467e-05
0.000102336
0.000348822
0.000105678
-0.000264258
0.000210162
-0.000239749
0.000297462
-0.000210401
0.000376181
-0.000184693
0.000435327
-0.00014504
0.000479654
-0.000100621
0.000510644
-5.59381e-05
0.000519034
4.28051e-06
0.000503806
6.45028e-05
0.000455973
0.000129332
0.000389691
0.000161728
0.000172523
0.000319504
4.6355e-05
-0.00031061
9.60771e-05
-0.000289473
0.000130486
-0.000244813
0.000165927
-0.000220138
0.000192722
-0.000171836
0.000219612
-0.000127512
0.000243099
-7.94254e-05
0.000254009
-6.62913e-06
0.000260008
5.85034e-05
0.000251168
0.000138171
0.000219129
0.000193767
0.000205356
0.000186295
2.02582e-05
-0.000330865
3.91717e-05
-0.000308387
6.87738e-05
-0.000274419
0.000107585
-0.000258954
0.000141918
-0.000206169
0.000166357
-0.000151952
0.000156598
-6.96659e-05
0.000125843
2.41258e-05
9.77224e-05
8.66238e-05
8.02629e-05
0.00015563
6.84952e-05
0.000205535
0.000208439
6.54127e-05
1.7836e-05
-0.000348699
4.14624e-05
-0.000332013
7.70783e-05
-0.000310036
0.000142698
-0.00032458
0.000219596
-0.00028307
0.000276669
-0.000209026
0.00025125
-4.42467e-05
0.000152963
0.000122415
7.21553e-05
0.000167436
1.56527e-05
0.00021214
-8.45515e-06
0.000229654
0.000211387
-1.13978e-05
2.16228e-05
-0.000370321
5.73265e-05
-0.000367717
0.000102118
-0.000354826
0.000193396
-0.000415865
0.000317295
-0.000406976
0.000390646
-0.000282385
0.000339881
6.53377e-06
0.000203792
0.000258604
7.26748e-05
0.000298633
-2.23153e-05
0.000307173
-6.61717e-05
0.00027354
0.000215153
-6.99298e-05
-3.48533e-06
-0.000366837
9.85855e-06
-0.000381063
6.10435e-05
-0.000406009
0.000164734
-0.000519555
0.000300557
-0.000542806
0.000365586
-0.000347483
0.000272663
9.97771e-05
0.00013069
0.000401467
1.69469e-05
0.000412646
-6.34423e-05
0.00038764
-9.00928e-05
0.000300183
0.000212382
-8.73351e-05
-5.84528e-05
-0.000308386
-8.3383e-05
-0.000356135
-6.86056e-05
-0.000420786
-1.13587e-05
-0.000576803
7.57209e-05
-0.000629982
0.000106109
-0.000378294
4.85551e-05
0.000158648
-1.19702e-05
0.000463403
-6.09094e-05
0.00046145
-7.84739e-05
0.000405125
-8.89492e-05
0.000310632
0.000227433
-0.000103971
-0.000108908
-0.00019948
-0.000214228
-0.000250818
-0.000296938
-0.000338078
-0.000363725
-0.000510061
-0.000402856
-0.000591654
-0.000386361
-0.000396065
-0.00033632
0.000111202
-0.000282105
0.000409353
-0.000237606
0.00041552
-0.000194432
0.000361573
-0.000206137
0.000322245
0.000286813
-0.000265614
-0.000171282
-2.82016e-05
-0.000281396
-0.000140706
-0.000392042
-0.000227436
-0.000543762
-0.000358409
-0.000689561
-0.000446651
-0.000733186
-0.000354187
-0.000620043
-2.7174e-06
-0.000537779
0.000328045
-0.000468067
0.00034542
-0.000387629
0.000280922
-0.000356515
0.000290953
0.000278759
-0.00034874
-0.000138227
0.000110003
-0.000221188
-5.78069e-05
-0.000348889
-9.98097e-05
-0.00057564
-0.000131787
-0.000794165
-0.000228531
-0.000935602
-0.000213849
-0.000797191
-0.000143004
-0.000587537
0.0001169
-0.000496607
0.00025549
-0.000421535
0.000205769
-0.000355639
0.000224694
0.000230617
-0.000307905
-8.72312e-05
0.000198206
-0.000193362
4.76584e-05
-0.000256863
-3.7228e-05
-0.000490869
0.000102255
-0.000783103
6.43315e-05
-0.000991004
-5.95706e-06
-0.000949367
-0.000185217
-0.000593326
-0.000240737
-0.00039012
5.23525e-05
-0.000324704
0.000141244
-0.000277111
0.00017636
-0.000233202
0.00018582
0.000258897
8.99255e-05
0.00019779
6.11075e-05
0.000158484
3.93056e-05
0.000123676
3.48082e-05
9.01429e-05
3.35327e-05
8.54113e-05
4.72603e-06
8.03261e-05
4.90094e-06
3.53736e-05
4.25948e-05
-2.1943e-06
3.57933e-05
-1.12764e-05
8.49844e-06
-1.34393e-05
7.80146e-07
-7.36235e-06
0.000251587
0.000157842
0.000188681
0.000124013
0.000129175
9.88121e-05
8.17629e-05
8.222e-05
5.77822e-05
5.75131e-05
4.08184e-05
2.16778e-05
2.7775e-05
1.76848e-05
2.24976e-05
4.68302e-05
5.72323e-06
5.15753e-05
-1.27099e-05
2.72219e-05
-5.51434e-07
-1.29092e-05
-6.16397e-06
0.000160129
0.000184008
0.000127879
0.000156264
9.6956e-05
0.000129734
8.21957e-05
9.69797e-05
7.83753e-05
6.13328e-05
7.74964e-05
2.25473e-05
7.75776e-05
1.74755e-05
8.63916e-05
3.76584e-05
7.7817e-05
5.98916e-05
5.3046e-05
5.20901e-05
3.22917e-05
6.77963e-06
2.83849e-05
7.48286e-05
0.000174592
8.28924e-05
0.0001482
8.60418e-05
0.000126584
9.2805e-05
9.02149e-05
0.000125396
2.87361e-05
0.000166703
-1.878e-05
0.000193573
-9.44046e-06
0.000190022
4.11411e-05
0.000149882
9.97978e-05
0.000103565
9.83095e-05
3.72242e-06
0.000106206
3.33369e-05
-6.54326e-06
0.000169736
2.74457e-05
0.0001142
8.96634e-05
6.43458e-05
0.00015782
2.20352e-05
0.000218555
-3.20571e-05
0.000264168
-6.45442e-05
0.000278871
-2.4247e-05
0.000238957
8.09663e-05
0.000167727
0.000170797
8.32157e-05
0.000182751
-2.86953e-05
0.000217876
4.28394e-06
-2.88778e-05
0.000128634
3.82391e-05
4.70131e-05
8.8479e-05
1.40376e-05
0.000106554
3.65413e-06
0.000101819
-2.82963e-05
0.000122831
-8.67997e-05
0.000187576
-8.99371e-05
0.000171577
9.67176e-05
5.75358e-05
0.000284512
2.24059e-05
0.000217858
3.73694e-05
0.000201345
2.19003e-05
-7.3649e-05
0.000114949
-0.00011926
9.25575e-05
-0.000223999
0.000117919
-0.000311695
8.84427e-05
-0.000299152
-4.22448e-05
-0.000216757
-0.000169576
-4.19526e-05
-0.000265263
0.000123228
-6.95416e-05
9.01395e-05
0.000317771
6.28573e-05
0.000249074
6.51809e-05
0.000182275
0.000113893
-0.000171882
0.000182812
-0.000287084
0.000207039
-0.00037111
0.000198891
-0.000378098
9.28525e-05
-0.000368874
-5.14143e-05
-0.000331315
-0.000205849
-0.000241215
-0.000355024
2.58668e-05
-0.000337848
0.000241595
0.000106191
0.000133378
0.000381565
4.738e-05
0.000275902
0.000221112
-0.000343005
0.000259972
-0.000400761
0.000263499
-0.000439458
0.00023485
-0.000458397
0.000111481
-0.00045947
-4.95372e-05
-0.000396159
-0.000268353
-0.000283484
-0.000466812
-5.96188e-05
-0.000560254
0.00018998
-0.000142943
9.54155e-05
0.000513739
-6.68105e-06
0.000384408
0.000227601
-0.000351625
0.00026255
-0.000371284
0.000282023
-0.000395888
0.000257578
-0.000418677
0.000134165
-0.000438181
-2.8963e-05
-0.000448146
-0.000257234
-0.000460521
-0.000453202
-0.000395752
-0.000624695
-0.000118764
-0.000432559
-3.20806e-05
0.000393106
-8.295e-05
0.000426133
0.000219929
-0.000275233
0.000229385
-0.000267402
0.000272851
-0.00023082
0.000218833
-0.000179316
8.2065e-05
-0.000181118
-2.65579e-05
-0.00030105
-0.000136302
-0.000478342
-0.000275314
-0.000617222
-0.000485872
-0.000542274
-0.00051528
-0.000239784
2.98913e-05
-9.01652e-05
0.000179889
0.000236455
-0.000159528
0.000153821
-8.68909e-05
0.000196872
-8.84047e-06
0.000138266
3.25165e-05
4.05479e-05
5.54468e-05
-4.89047e-05
4.35052e-05
-0.00012394
-8.23161e-05
-0.000149539
-0.000386981
-0.000181312
-0.000640884
-0.000262039
-0.000399747
-0.000223086
-0.00015126
-0.000145341
9.34848e-05
-2.12648e-06
2.12646e-06
1.47366e-06
-3.60015e-06
2.62023e-06
-1.14658e-06
9.02372e-06
-6.4035e-06
1.182e-05
-2.79624e-06
1.0013e-05
1.80699e-06
4.99302e-06
5.01993e-06
-2.38204e-06
7.37505e-06
-1.88834e-05
1.65013e-05
-3.96717e-05
2.07883e-05
-6.8293e-05
2.86213e-05
6.74674e-05
-0.00013576
-2.66163e-06
4.78809e-06
-3.67128e-06
-2.59049e-06
-5.86893e-06
1.05107e-06
-9.49786e-06
-2.77457e-06
-1.89389e-05
6.64478e-06
-3.08949e-05
1.3763e-05
-5.08735e-05
2.49985e-05
-7.54074e-05
3.1909e-05
-0.000111578
5.26715e-05
-0.00017121
8.04207e-05
-0.000263422
0.000120833
0.000165696
-0.00036165
-1.2612e-06
6.04929e-06
1.39385e-07
-3.99108e-06
1.253e-06
-6.25508e-08
-5.69578e-07
-9.52005e-07
-1.27339e-05
1.88091e-05
-3.16762e-05
3.27053e-05
-6.28365e-05
5.61587e-05
-9.9534e-05
6.86069e-05
-0.000134815
8.79553e-05
-0.000192542
0.000138149
-0.000282689
0.000210981
0.000232383
-0.000349377
6.4372e-06
-3.87907e-07
1.06144e-05
-8.16827e-06
1.453e-05
-3.97816e-06
1.79698e-05
-4.39181e-06
8.74386e-06
2.8035e-05
-1.40192e-05
5.54684e-05
-5.25484e-05
9.46885e-05
-0.000105095
0.000121198
-0.000155584
0.00013859
-0.000205932
0.000188666
-0.000263452
0.000268572
0.000277699
-0.000308764
-5.68037e-06
5.29246e-06
4.57887e-07
-1.43066e-05
1.10922e-05
-1.46125e-05
2.34008e-05
-1.67005e-05
2.43281e-05
2.71077e-05
-5.71683e-07
8.03688e-05
-5.04086e-05
0.000144587
-0.000108995
0.000180188
-0.000162666
0.000193078
-0.000192596
0.000219734
-0.000203765
0.000280806
0.000297337
-0.000223055
-3.88387e-06
9.17632e-06
8.79384e-06
-2.69843e-05
3.11882e-05
-3.70068e-05
4.42436e-05
-2.97561e-05
4.14198e-05
2.99327e-05
6.35693e-06
0.000115526
-4.76732e-05
0.000199251
-0.000104654
0.000238447
-0.000148887
0.000238767
-0.000157563
0.000230301
-0.000137828
0.000263784
0.000281613
-0.000119818
4.07657e-06
5.09973e-06
6.31337e-06
-2.92211e-05
1.61619e-05
-4.68575e-05
1.46887e-05
-2.83016e-05
-1.49848e-05
5.96508e-05
-6.63775e-05
0.000167678
-0.000117191
0.000252348
-0.000147181
0.000271194
-0.000156909
0.000250553
-0.000144681
0.000219301
-0.000100133
0.00022105
0.000231036
-4.61703e-05
-3.01995e-05
3.52992e-05
-5.81917e-05
-1.23248e-06
-9.38651e-05
-1.12473e-05
-0.000139219
1.66373e-05
-0.000193602
0.000113361
-0.00022006
0.000194919
-0.000215511
0.000251559
-0.000200273
0.000260936
-0.000174017
0.00022877
-0.000141351
0.00018918
-9.50484e-05
0.00017507
0.000160077
-2.30024e-05
-4.33782e-05
7.86753e-05
-0.000106073
6.14234e-05
-0.000187399
6.96988e-05
-0.000271101
9.8697e-05
-0.000322022
0.00016071
-0.000310662
0.000180334
-0.000252182
0.000194009
-0.000189795
0.000203804
-0.000142252
0.000188337
-0.00010568
0.000159796
-6.66409e-05
0.000139625
9.62124e-05
-2.90155e-06
-4.58952e-05
0.000124561
-7.44459e-05
8.99144e-05
-0.000135219
0.000130101
-0.000203667
0.000165316
-0.000237122
0.000188926
-0.000235897
0.000170574
-0.000193425
0.000144511
-0.000130134
0.000140513
-7.55198e-05
0.000139989
-3.41677e-05
0.000129128
1.10296e-05
0.00010516
4.46627e-05
6.60957e-05
-1.17433e-05
0.000136288
-1.06415e-05
8.87394e-05
-1.5756e-05
0.000135165
-2.83316e-05
0.000177385
-1.91339e-05
0.00017682
5.26275e-06
0.000138622
4.27913e-05
9.57881e-05
9.17537e-05
8.32701e-05
0.000139118
9.29212e-05
0.000179438
9.70943e-05
0.000229946
6.77155e-05
1.08713e-05
0.000272048
6.37497e-05
7.2357e-05
8.6982e-05
6.55958e-05
0.000123833
9.90871e-05
0.00015648
0.000146328
0.000187199
0.000146059
0.000219045
0.000103498
0.000248082
5.69149e-05
0.000277634
3.81606e-05
0.00030521
5.4954e-05
0.00033021
7.33573e-05
0.000356161
5.09978e-05
0.000368359
9.65332e-06
-0.000243903
0.000108142
-0.000336509
9.26063e-05
-0.000367595
3.10855e-05
-0.000358641
-8.95361e-06
-0.000314722
-4.39191e-05
-0.000242867
-7.18554e-05
-0.0001528
-9.00669e-05
-4.5083e-05
-0.000107717
6.02678e-05
-0.000105351
0.000105211
-4.49432e-05
7.03627e-05
3.4848e-05
7.03627e-05
-0.000404484
0.000150976
-0.000416002
0.000104125
-0.000410663
2.57458e-05
-0.000390133
-2.94839e-05
-0.000346426
-8.7627e-05
-0.000285946
-0.000132335
-0.00021329
-0.000162724
-0.000136569
-0.000184439
-5.08961e-05
-0.000191025
1.74378e-05
-0.000113278
9.52241e-06
4.27627e-05
7.98873e-05
-0.000397531
0.000199131
-0.000424469
0.000131062
-0.00042858
2.98558e-05
-0.000404785
-5.32798e-05
-0.00035583
-0.000136583
-0.000295229
-0.000192938
-0.000223922
-0.000234032
-0.000148617
-0.000259746
-8.27458e-05
-0.000256899
-7.62809e-06
-0.000188403
7.03363e-06
2.80718e-05
8.69298e-05
-0.000348131
0.000238497
-0.000377124
0.000160054
-0.000385063
3.77938e-05
-0.000355
-8.33431e-05
-0.000298093
-0.000193491
-0.000228417
-0.000262616
-0.000150353
-0.0003121
-6.44326e-05
-0.000345671
-8.92544e-07
-0.000320445
3.41861e-05
-0.000223499
2.37979e-05
3.78972e-05
0.000110496
-0.000242924
0.000258385
-0.000256519
0.000173648
-0.000252229
3.35045e-05
-0.000224097
-0.000111474
-0.000185839
-0.000231748
-0.000133422
-0.000315033
-7.00872e-05
-0.000375436
1.10883e-06
-0.000416873
6.79737e-05
-0.000387323
7.47165e-05
-0.000230329
4.60892e-05
6.20096e-05
0.000162503
-9.32278e-05
0.000232507
-6.65932e-05
0.000147034
-4.35605e-05
1.04723e-05
-2.87472e-05
-0.000126287
-2.98184e-05
-0.000230676
-3.34559e-05
-0.000311393
-1.46373e-05
-0.000394252
3.51389e-05
-0.000466654
9.53991e-05
-0.000447692
8.0843e-05
-0.000217055
3.40649e-05
0.000101168
0.000225121
1.14802e-05
0.000177528
6.2868e-05
9.63307e-05
9.79553e-05
-2.46018e-05
9.94644e-05
-0.000127796
8.17894e-05
-0.000213
4.99481e-05
-0.00027955
1.09563e-05
-0.000355257
-2.90609e-05
-0.000426672
-4.29502e-05
-0.000435262
-6.40537e-05
-0.000208082
-2.19696e-05
5.96914e-05
0.00024313
4.86164e-05
0.000108972
0.000110152
3.70292e-05
0.000150354
-6.43888e-05
0.000157697
-0.000135128
0.0001289
-0.000184203
6.58725e-05
-0.000216523
-2.99466e-05
-0.000259447
-0.000157111
-0.000299944
-0.000260019
-0.000341212
-0.000261388
-0.00023493
-0.000137262
-6.90317e-05
0.000137323
7.17743e-05
3.52847e-05
0.000129269
-1.7905e-05
0.000168833
-0.000102578
0.00018234
-0.000148391
0.000148213
-0.000150067
7.93657e-05
-0.000147692
-4.40548e-06
-0.000175882
-0.000129969
-0.000176133
-0.000268914
-0.0002139
-0.000312814
-0.000222476
-0.000244999
-0.000161055
-8.08447e-05
0.000132696
-3.12345e-05
0.00018893
-7.26204e-05
0.000209865
-0.000121891
0.000202008
-0.000139904
0.000170407
-0.000118686
0.000144562
-0.000122973
0.000105185
-0.000139646
4.07679e-05
-0.000117804
-6.79174e-05
-0.000113428
-0.000152236
-0.000155601
-0.000156022
-0.000179224
-0.00020282
0.000290124
-4.79145e-05
0.000298453
-7.99378e-05
0.00027574
-9.85981e-05
0.000241062
-0.000107218
0.000224448
-0.000106937
0.00021192
-0.000117761
0.000170592
-0.000105268
0.000108095
-5.88751e-05
5.06833e-05
-5.46271e-05
9.07615e-07
-0.000105535
-3.09787e-05
-0.000160541
-0.000196583
0.000368005
-4.32575e-05
0.000358356
-6.91521e-05
0.000332618
-7.05318e-05
0.000303431
-7.7809e-05
0.000275896
-8.01997e-05
0.000219146
-6.10741e-05
0.000155303
-3.83287e-05
0.000119541
-1.73707e-05
9.99957e-05
-2.87854e-05
5.80203e-05
-5.90013e-05
1.39077e-05
-0.000126514
-0.00015641
0.000183017
-9.31846e-05
-5.60223e-05
0.000328319
-9.093e-05
0.000433579
-9.6137e-05
0.000508852
-0.000101636
0.000565635
-0.000101448
0.000604075
-9.67213e-05
0.000626881
-9.07505e-05
0.000641314
-8.0165e-05
0.000654468
-6.42459e-05
0.000672748
-4.93773e-05
0.000700974
-3.67451e-05
-2.84682e-05
0.00072967
0.000760904
-0.000160324
-0.000722991
0.000793769
-0.000153643
0.000818136
-0.000147838
0.000833126
-0.000137039
0.000843157
-0.000125803
0.000848627
-0.000111418
0.000850016
-9.61666e-05
0.000848243
-7.66008e-05
0.000846299
-5.1521e-05
0.000847824
-3.09521e-05
0.000852538
-1.1657e-05
1.88894e-06
0.00086011
0.00090611
-0.000137253
-0.000894286
0.000915813
-0.000101453
0.000920986
-6.91313e-05
0.000921936
-4.16167e-05
0.000920286
-1.79227e-05
0.000917041
4.67041e-06
0.000913461
2.18169e-05
0.000910417
3.67897e-05
0.000911773
5.01292e-05
0.000918013
5.59811e-05
0.000925387
6.19909e-05
6.35872e-05
0.000925843
0.000988357
-0.000980368
-5.06768e-05
0.000993385
-3.20556e-05
0.000993051
-1.48833e-05
0.000987002
3.94914e-07
0.000976979
1.1395e-05
0.000962628
2.35015e-05
0.000947426
2.83863e-05
0.000932882
2.97793e-05
0.00091818