/*--------------------------------*- C++ -*----------------------------------*\
| =========                 |                                                 |
| \\      /  F ield         | OpenFOAM: The Open Source CFD Toolbox           |
|  \\    /   O peration     | Version:  2212                                  |
|   \\  /    A nd           | Website:  www.openfoam.com                      |
|    \\/     M anipulation  |                                                 |
\*---------------------------------------------------------------------------*/
FoamFile
{
    version     2.0;
    format      ascii;
    arch        "LSB;label=32;scalar=64";
    class       surfaceScalarField;
    location    "1.5";
    object      phi.oil;
}
// * * * * * * * * * * * * * * * * * * * * * * * * * * * * * * * * * * * * * //

dimensions      [0 3 -1 0 0 0 0];

oriented        oriented;

internalField   nonuniform List<scalar> 
6392
(
1.95552e-06
1.66036e-05
-2.61359e-06
1.92878e-05
-1.63287e-05
2.71452e-05
-3.10416e-05
2.75093e-05
-5.81682e-05
4.11186e-05
-0.000119555
8.32562e-05
-0.000189088
0.000107757
-0.000220721
8.84921e-05
-0.000219641
5.8595e-05
-0.000199391
3.60532e-05
-0.000170537
1.7563e-05
5.46348e-06
-0.000136978
5.51853e-07
2.37617e-05
-6.77838e-06
2.94311e-05
-3.03262e-05
4.7929e-05
-7.43885e-05
6.53175e-05
-0.000132179
9.23874e-05
-0.000163083
0.000129349
-0.00018391
0.000130444
-0.000196939
0.000104039
-0.00020531
6.47289e-05
-0.000205438
3.76887e-05
-0.000196917
1.42355e-05
-1.1978e-05
-0.000176043
1.86767e-05
1.63557e-05
2.93663e-05
2.60635e-05
2.03729e-05
5.9861e-05
-1.91342e-05
0.000100737
-8.04646e-05
0.000142507
-0.000117519
0.000177883
-0.000146554
0.00017606
-0.00018069
0.000145318
-0.000215441
9.69638e-05
-0.000238195
6.684e-05
-0.00024848
3.85742e-05
1.06222e-06
-0.000242468
2.71848e-05
-1.84224e-05
5.88675e-05
-6.93599e-06
6.75955e-05
5.23668e-05
4.54841e-05
0.000120504
-9.64903e-06
0.000187746
-6.91543e-05
0.000232226
-0.000125528
0.000233898
-0.000183984
0.000195871
-0.00023536
0.000140519
-0.000263759
0.00010228
-0.000278903
6.93096e-05
2.75725e-05
-0.000280947
2.60981e-05
-4.96512e-05
6.05929e-05
-3.14431e-05
7.4719e-05
5.29093e-05
7.43324e-05
0.000138968
3.82866e-05
0.000233437
-1.07808e-05
0.000290359
-8.61136e-05
0.000303959
-0.000164826
0.000259776
-0.000220677
0.000191075
-0.000247108
0.000144313
-0.000260471
0.0001065
6.68342e-05
-0.000266208
1.03515e-05
-6.02511e-05
1.61828e-05
-3.43111e-05
2.60447e-05
5.26378e-05
4.66867e-05
0.000137
4.11532e-05
0.000250132
2.67319e-05
0.000325966
-2.97098e-05
0.000358214
-0.000111227
0.000327515
-0.000167136
0.000239022
-0.000187465
0.000158762
-0.000199794
0.000118184
9.07795e-05
-0.000206429
1.97411e-05
-7.89067e-05
2.40273e-05
-3.20629e-05
2.65177e-05
5.357e-05
2.93418e-05
0.000143045
5.0002e-05
0.0002522
5.3358e-05
0.000338806
3.662e-05
0.000374961
-1.78458e-05
0.000367183
-7.71759e-05
0.00028892
-8.29066e-05
0.000171873
-8.13763e-05
9.42208e-05
6.62335e-05
-8.46945e-05
9.59879e-06
-9.71454e-05
1.54024e-05
-3.28933e-05
1.02848e-05
6.69608e-05
1.78663e-06
0.00016145
1.53879e-05
0.000250111
5.56812e-05
0.000326007
8.05551e-05
0.00034818
9.50781e-05
0.000341273
0.000101151
0.000289607
0.000112511
0.000180015
0.000138709
6.37602e-05
7.04421e-06
0.000156042
-0.000129477
4.94383e-05
-0.000177758
3.20951e-05
-0.000163419
7.63694e-05
-0.000140354
0.000160161
-0.000105256
0.0002297
-2.0343e-05
0.00027098
5.83952e-05
0.000275696
0.000122914
0.000237313
0.000194477
0.000194097
0.000252274
0.000101205
0.000312284
2.84895e-07
-5.84826e-05
0.000367368
-0.0001219
0.000169182
-0.000211487
9.403e-05
-0.000279412
0.000134126
-0.000294235
0.000177743
-0.000231175
0.000170979
-0.000113946
0.000153883
4.37086e-05
0.000137812
0.000172613
0.000159545
0.000313594
0.000132587
0.000442412
0.000110503
0.000539499
7.59037e-05
5.20046e-05
0.00060664
-0.000107737
0.000271216
-0.000189601
0.000179702
-0.000212272
0.000282336
-0.000150733
0.000344598
-2.32546e-06
0.00031331
0.000259332
0.000242572
0.000346672
0.0002256
0.000443016
0.000273851
0.000513061
0.000284917
0.000561739
0.000289446
0.000595823
0.000265511
0.000262353
0.000633263
7.77753e-06
0.000329264
7.77073e-05
0.000217956
6.91453e-05
0.000335928
0.000161182
0.000427016
0.000263875
0.00044461
0.000389755
0.000397554
0.000491498
0.000343747
0.000534205
0.000317753
0.000556981
0.000326615
0.000580058
0.000290267
0.000599546
0.000238402
0.0006129
0.00023111
-9.45708e-05
-1.65157e-05
-3.90658e-05
-3.38498e-05
1.70403e-05
-3.77769e-05
7.69058e-05
-5.20924e-05
0.000144966
-6.97254e-05
0.000207431
-7.37513e-05
0.000255436
-4.78485e-05
0.000271939
-1.61131e-05
0.000262971
4.10334e-06
0.000245504
2.49468e-05
0.000217265
3.80992e-05
3.62542e-05
-0.000144874
-4.62664e-05
-8.88855e-05
-7.39811e-05
-2.06911e-05
-8.96556e-05
4.42435e-05
-0.000106551
0.000134776
-0.000144533
0.000208787
-0.00013818
0.00026496
-8.35562e-05
0.000295776
-3.74565e-05
0.000284416
3.50109e-05
0.000278929
7.87527e-05
0.000271115
0.000124056
0.000118753
-0.000218804
-4.45196e-05
-0.000168476
-8.74307e-05
-0.000110669
-0.000119934
-3.58368e-05
-0.000156438
7.85215e-05
-0.000197979
0.0001709
-0.000205048
0.000232369
-0.000131061
0.000268855
-7.21578e-05
0.000230143
3.89099e-05
0.000184618
0.000103844
0.000205224
0.000176662
0.000201928
-0.000268359
-2.26753e-05
-0.00023654
-7.26547e-05
-0.000188175
-0.00011617
-0.000110137
-0.000166157
-1.86402e-07
-0.00020833
9.48708e-05
-0.000240285
0.000141192
-0.000183367
0.000140433
-0.000129256
0.000137742
-1.55157e-05
0.000154009
6.72657e-05
0.000183141
0.000156505
0.000233845
-0.000264474
2.11556e-05
-0.000249929
-2.72958e-05
-0.000221753
-7.5029e-05
-0.00016274
-0.000125621
-8.56781e-05
-0.000171569
-2.48599e-05
-0.000232438
1.72795e-05
-0.000256057
2.83925e-05
-0.000243098
7.73875e-05
-0.000121283
0.000120738
3.81574e-05
0.000155994
0.000127198
0.00024846
-0.000206542
6.11228e-05
-0.000199756
2.36924e-05
-0.000184483
-1.66262e-05
-0.00016718
-6.21046e-05
-0.000156647
-0.000110018
-0.000128896
-0.000202638
-8.38301e-05
-0.000299223
-4.78026e-05
-0.000331906
1.7888e-05
-0.000223823
7.69512e-05
1.23316e-05
0.000143054
0.000132651
0.000266933
-9.17643e-05
5.91459e-05
-0.00010148
7.39828e-05
-0.000113346
6.07655e-05
-0.000155013
1.99019e-05
-0.000227203
-5.22343e-05
-0.000255419
-0.000172805
-0.000194943
-0.000283168
-9.32478e-05
-0.000369455
-3.75048e-05
-0.00027702
-4.46272e-06
-0.0001003
0.000104473
0.000125594
0.00027281
0.000142421
-1.21681e-05
8.918e-05
2.51925e-05
1.98675e-05
7.91941e-05
-8.74394e-05
8.21731e-05
-0.000219042
-6.46882e-06
-0.000283264
-0.000133339
-0.000227357
-0.000223839
-9.22258e-05
-0.000312894
1.68747e-05
-0.000256775
4.941e-05
-0.000210908
9.9022e-05
5.08674e-05
0.000259532
0.00040861
-8.9522e-05
0.000393302
-7.70419e-05
0.000267584
1.30621e-05
6.15407e-05
5.62465e-05
-0.00012715
-4.80496e-06
-0.00021954
-7.50537e-05
-0.000183502
-0.000116421
-8.3519e-05
-0.000159192
6.61704e-05
-0.000143115
0.000149628
-0.000120353
0.000162124
3.36275e-06
0.000264144
0.000644521
4.68985e-05
0.000648533
3.74546e-05
0.000603883
-1.04142e-05
0.000479448
-4.82489e-06
0.000221261
-5.25085e-05
-1.32965e-05
-5.28881e-05
-5.2566e-05
1.0954e-06
-1.87836e-05
5.0185e-07
0.000106392
-6.45122e-06
0.000212874
3.38541e-05
0.000222835
6.53765e-05
0.000299595
0.000667797
0.000267927
0.000736966
0.000249558
0.000857192
0.000159781
0.000826345
0.000131938
0.000717395
8.05917e-05
0.000395793
4.64632e-05
0.000157824
8.78326e-05
0.000134299
0.000138054
0.000226555
0.000117605
0.000305792
0.00013292
0.000344774
0.000191889
0.00045364
0.000632437
0.00024364
0.000665164
0.000247719
0.000701622
0.000255081
0.000728086
0.000260064
0.000723872
0.000267139
0.000554699
0.000233376
0.000299198
0.000221436
0.000193664
0.000268443
0.000262466
0.000193068
0.000338242
0.000182777
0.00038806
0.000263817
0.00061388
1.72125e-05
-4.79075e-06
3.9022e-05
-1.47681e-05
7.02398e-05
-2.66898e-05
0.000113079
-3.66916e-05
0.000146853
-2.47864e-05
0.000147071
1.1595e-05
0.000112909
5.17875e-05
-3.65498e-06
0.000130868
-0.000169611
0.000174856
-0.000297329
0.000171076
-0.000370778
0.000160764
0.000150664
-0.000392699
1.40126e-05
-2.02326e-05
3.5006e-05
-3.3902e-05
5.20676e-05
-4.15629e-05
5.29452e-05
-3.29637e-05
2.76601e-05
2.70183e-05
-7.37466e-05
0.000136537
-0.000202041
0.000216379
-0.0003143
0.000250448
-0.000412478
0.000255718
-0.000464102
0.000250722
-0.000477881
0.000223255
0.000201812
-0.000419046
3.79146e-06
-1.56864e-05
7.40292e-06
-2.98305e-05
6.29478e-06
-2.86676e-05
-2.30146e-05
8.06476e-06
-9.81586e-05
0.000129566
-0.000202162
0.000265506
-0.000297997
0.000330684
-0.000384653
0.000357587
-0.00045305
0.000356624
-0.000484314
0.000338703
-0.000445537
0.000302019
0.000266696
-0.000346128
1.73687e-06
-1.20449e-05
-1.32087e-07
-2.27942e-05
-1.44629e-05
-7.14748e-06
-4.6456e-05
4.25102e-05
-0.000101101
0.000185136
-0.000193356
0.000352011
-0.000275286
0.000412273
-0.000343812
0.000434775
-0.000400777
0.000445701
-0.000409794
0.000430733
-0.000330261
0.000403153
0.000381689
-0.000246312
1.3199e-05
-1.4131e-05
2.05869e-05
-2.05987e-05
1.12685e-05
1.14863e-05
-3.15898e-06
6.35264e-05
-3.89604e-05
0.000211054
-0.000119484
0.000419209
-0.000192057
0.000484886
-0.000259663
0.00052191
-0.000312673
0.000551372
-0.00030116
0.000550638
-0.000243947
0.000528123
0.000505611
-0.000227494
8.98929e-06
-1.60116e-05
2.31852e-05
-2.33875e-05
3.26859e-05
1.48473e-05
3.62049e-05
6.79749e-05
3.12665e-05
0.000198179
-2.26413e-05
0.000453079
-9.29979e-05
0.000542823
-0.000154839
0.000592514
-0.000178539
0.000632241
-0.000155552
0.000631927
-0.000156422
0.000603367
0.000554575
-0.000218371
1.45009e-05
-1.94545e-05
4.0237e-05
-3.37284e-05
7.41106e-05
-2.07087e-06
8.17769e-05
7.18095e-05
9.46622e-05
0.000170803
7.66819e-05
0.000428754
1.63199e-05
0.000585416
-2.34243e-05
0.000630051
-3.4597e-05
0.000675755
-4.2638e-05
0.00067592
-9.12354e-05
0.000637519
0.000557174
-0.000179896
2.27865e-05
-2.88699e-05
5.27291e-05
-5.62072e-05
0.000110782
-4.96824e-05
0.000148319
3.79946e-05
0.000163012
0.000153489
0.000169827
0.000361757
0.000133605
0.000585104
0.000102143
0.000641513
9.328e-05
0.000689192
8.58441e-05
0.000696314
3.04938e-05
0.000642869
0.000531542
-5.89021e-05
3.69925e-05
-5.80631e-05
6.44517e-05
-9.78394e-05
0.000124094
-0.000110637
0.00016492
1.03788e-05
0.00018227
0.000174001
0.000218683
0.000309506
0.000214133
0.000563743
0.000203567
0.000621456
0.00021766
0.000663047
0.000218252
0.000681486
0.000187464
0.000640378
0.000524698
0.000188959
-4.28334e-05
1.56779e-05
-0.000139704
-1.02233e-05
-0.00013549
-0.000107749
2.73133e-05
-7.71548e-05
0.000139241
0.000119926
0.000202142
0.00027857
0.000241688
0.000528773
0.000266181
0.000570654
0.00029366
0.000610053
0.000326484
0.000639239
0.000360387
0.000610365
0.000495781
0.000406171
-0.000166711
0.00016618
-0.000314456
0.000179449
-0.000363059
6.06126e-05
-0.000182111
-0.000135419
-1.44849e-05
2.21227e-05
9.2367e-05
0.000236962
0.000219615
0.000439022
0.000280713
0.000486765
0.000357602
0.000494595
0.000405636
0.000503486
0.000449116
0.000517044
0.000469636
0.000523361
-0.000133161
0.000333514
-0.000196186
0.000306378
-0.000315608
0.000260136
-0.000316151
9.69691e-06
-0.000227739
-3.52414e-05
-3.15534e-06
8.14083e-05
0.000149695
0.000276532
0.000255876
0.000348583
0.000357742
0.000423044
0.000464987
0.000404701
0.000557834
0.000487325
0.000624092
0.000461461
-0.000348163
0.000140018
-0.000265512
0.000135256
-0.000203163
0.000130901
-0.000167855
0.000110762
-0.000145599
8.52414e-05
-0.000123739
5.89987e-05
-0.000107179
4.43278e-05
-9.56909e-05
4.04862e-05
-3.54587e-05
3.85707e-05
3.06483e-05
6.93848e-05
7.34593e-05
6.98672e-05
8.19982e-05
-0.000309329
0.000178831
-0.000221075
0.000161702
-0.000185575
0.000138427
-0.000181399
0.000104725
-0.00019457
7.08744e-05
-0.000205366
4.46125e-05
-0.000191082
3.48737e-05
-0.000143114
3.76826e-05
-4.63252e-05
4.97627e-05
3.88102e-05
7.69989e-05
8.72791e-05
6.33809e-05
8.88425e-05
-0.000273968
0.000242687
-0.000259318
0.000217869
-0.000273414
0.00018475
-0.000291224
0.000146179
-0.000280346
0.000111487
-0.000238058
8.7994e-05
-0.00018627
7.87662e-05
-0.000120995
7.09288e-05
-5.43796e-05
7.11009e-05
-1.26151e-05
7.52336e-05
4.3156e-05
4.38938e-05
0.000107274
-0.000238882
0.000359372
-0.000270041
0.000323827
-0.000302616
0.000281148
-0.000302841
0.000236603
-0.000273244
0.000194889
-0.000223767
0.000157881
-0.000167671
0.000126154
-0.000108238
0.000100113
-5.73841e-05
8.50186e-05
-4.87217e-06
7.49e-05
7.88319e-05
4.68686e-05
0.000157538
-0.000258484
0.000466884
-0.000300946
0.000416794
-0.00032005
0.000359654
-0.000302468
0.00030784
-0.000257041
0.000263068
-0.000199467
0.00021951
-0.000146896
0.000187173
-9.87242e-05
0.000141145
-6.08744e-05
0.000112181
2.6741e-05
7.74089e-05
0.000170947
7.07893e-05
0.000200178
-0.000293391
0.000491208
-0.000334554
0.000425981
-0.000336201
0.000353383
-0.000308743
0.000291578
-0.000267542
0.00024645
-0.000212047
0.000225044
-0.000145343
0.000232805
-8.06988e-05
0.000186914
-4.72868e-05
0.000140919
5.40743e-05
7.89384e-05
0.000219618
7.38415e-05
0.000190718
-0.00026561
0.000457972
-0.000308228
0.000360917
-0.000307019
0.00026471
-0.00027723
0.00017771
-0.00024102
0.000127039
-0.000207792
0.000135209
-0.000162493
0.00021921
-9.67418e-05
0.000213754
-5.53175e-05
0.000178469
5.14264e-05
0.000107736
0.000228372
7.97035e-05
0.00015152
-0.000109636
0.000387432
-0.000116349
0.000236168
-8.92172e-05
0.000112306
-5.30306e-05
1.99453e-05
-4.3624e-05
-2.73288e-05
-9.34439e-05
4.59598e-05
-0.000145423
0.000213932
-0.000116919
0.000239433
-7.19363e-05
0.000203271
1.34917e-05
0.000119954
0.000182783
8.01317e-05
8.15609e-05
0.000275618
0.00035893
0.000379046
0.000162496
0.000451366
2.87628e-05
0.000472163
-4.12725e-05
0.000346001
-7.13298e-05
7.9168e-05
0.000104001
-0.000104593
0.000287783
-0.000137541
0.000286692
-0.000115219
0.00024591
-4.56673e-05
0.000148777
8.38306e-05
8.86768e-05
3.13584e-05
0.000492272
0.000336141
0.0005917
0.000199497
0.000656688
0.000118576
0.000659063
8.68484e-05
0.000459685
7.76807e-05
0.000101822
0.000198001
-0.000105778
0.000389045
-0.000143145
0.0004109
-0.000132833
0.000323587
-0.000100669
0.000209281
-3.90447e-05
0.000116622
2.67686e-06
0.000624834
0.000373462
0.000680769
0.000282479
0.000674419
0.000232918
0.000651046
0.000213777
0.000603284
0.000209557
0.000334999
0.000213295
-2.42779e-05
0.00035358
-0.000166663
0.000516606
-0.000179183
0.000461293
-0.000176549
0.00029
-0.000155619
0.00017723
2.10921e-05
0.000680396
0.000420027
0.000704639
0.000294209
0.00071317
0.000227003
0.000712704
0.000176161
0.000707848
0.000148596
0.000689913
0.00013487
0.000555954
0.00017279
0.000239735
0.0003105
-3.53683e-05
0.000388705
-0.000131948
0.000308059
-0.000126371
0.000314217
0.000296117
7.24852e-05
-0.000101823
0.000149667
-8.8855e-05
0.000225099
-8.21667e-05
0.000280091
-5.77205e-05
0.00030487
-2.3028e-05
0.000296648
1.29132e-05
0.000250044
4.71543e-05
0.000206253
3.86007e-05
0.000148271
4.78559e-05
3.58243e-05
0.00013371
-0.000141211
0.000221799
0.0003194
-0.000315831
4.99816e-05
-0.000187763
0.00014975
-0.000182291
0.000219951
-0.000161657
0.000279429
-0.000112476
0.000291194
-2.87067e-05
0.000238382
7.85016e-05
0.000149395
0.000133041
5.01283e-05
0.000124371
-7.91505e-05
0.000184268
-0.000265328
0.000333891
-0.000378382
0.000412511
0.000396595
-0.000355435
4.30031e-05
-0.000259762
0.000140548
-0.000263514
0.000201583
-0.000222906
0.00025936
-0.000146817
0.000258558
-2.58415e-06
0.000207432
0.000152136
0.00013612
0.00020994
7.09341e-06
0.000258039
-0.000182282
0.000384891
-0.000320303
0.000496998
-0.000342438
0.000499462
0.000459139
-0.000287917
1.69855e-05
-0.000302427
8.77669e-05
-0.000313135
0.000122119
-0.000247536
0.000153075
-0.000140777
0.000141099
5.87442e-05
0.000105353
0.000219169
2.37142e-05
0.000313335
-0.000116565
0.000415496
-0.000248283
0.000532712
-0.000310649
0.000576548
-0.000303659
0.000559107
0.000504542
-0.000248521
-1.33839e-05
-0.000309261
1.52921e-05
-0.000323888
2.21366e-05
-0.000240792
4.52175e-05
-0.000115224
2.87459e-05
0.000128558
-2.15256e-05
0.000311908
-9.69558e-05
0.000438007
-0.000180146
0.00053402
-0.000240729
0.000612742
-0.000264096
0.000631124
-0.000250226
0.000603409
0.000543698
-0.000203455
-3.61013e-05
-0.000290472
-4.95985e-05
-0.000297187
-6.48102e-05
-0.000214263
-6.99251e-05
-7.70787e-05
-0.000103545
0.000202682
-0.000123775
0.000384246
-0.000150044
0.000507711
-0.000174352
0.000592039
-0.00020263
0.000656193
-0.000215416
0.00067427
-0.000198615
0.000643391
0.000579481
-0.000153531
-5.21611e-05
-0.000254867
-7.61636e-05
-0.000260782
-0.000107598
-0.000175017
-0.000119739
-4.44344e-05
-0.000145586
0.000252902
-0.000135126
0.000416191
-0.000133654
0.000542284
-0.000136691
0.000623933
-0.000146605
0.000686437
-0.000143726
0.000704878
-0.000119222
0.000665502
0.000602131
-7.24124e-05
-7.23882e-05
-0.000196499
-0.000112556
-0.000200258
-0.000130702
-0.000145618
-0.000129324
-3.13402e-05
-0.00013329
0.000281203
-0.000111297
0.000428094
-9.77854e-05
0.000558663
-8.93518e-05
0.000634322
-8.62299e-05
0.000689743
-6.75972e-05
0.000708282
-2.81526e-05
0.000668564
0.000620575
2.08365e-05
-8.1521e-05
-0.000144268
-0.00012006
-0.000164441
-0.00012437
-0.0001313
-0.000117131
-2.95805e-05
-9.34586e-05
0.000282949
-6.46637e-05
0.000417902
-4.11915e-05
0.000550968
-1.88508e-05
0.000621197
7.42658e-06
0.000667814
4.7902e-05
0.000682399
9.31219e-05
0.000653637
0.000641798
0.000129394
-0.000120861
-1.41818e-05
-0.000153404
-9.42873e-05
-0.000163205
-9.51111e-05
-0.000138148
-2.82386e-05
-7.33366e-05
0.00024866
-3.60506e-05
0.000381551
6.22472e-06
0.000505947
4.55542e-05
0.000570456
9.2767e-05
0.000599987
0.000141178
0.000623398
0.000186626
0.000628662
0.000645734
0.000214415
-8.85723e-05
3.98521e-05
-0.00011857
-0.000116329
-0.000110624
-0.00013852
-8.42576e-05
-6.85618e-05
-2.89587e-06
0.000166393
5.83107e-05
0.000309481
0.00010727
0.000440619
0.000149198
0.000504489
0.000196813
0.000524436
0.000250043
0.00056643
0.000287444
0.000604045
0.00063238
0.000300356
-8.66547e-05
0.000242044
-0.000167241
0.000134641
-0.000175227
-3.94738e-05
-0.000131365
-4.23389e-05
-1.18506e-05
8.79261e-05
8.30416e-05
0.000202219
0.000163341
0.00032225
0.000236721
0.000387202
0.000304798
0.000397429
0.00035509
0.000446681
0.000390288
0.000515613
0.000416041
0.000553682
-0.000384507
0.000272098
-0.000442535
0.000234793
-0.000522097
0.00022495
-0.000581439
0.000239756
-0.000596843
0.00026629
-0.000566391
0.00027686
-0.00050915
0.00027999
-0.000442637
0.000291048
-0.000373934
0.000301984
-0.000245757
0.000313591
-8.15991e-05
0.000307217
0.000265509
-0.000318287
0.00032529
-0.000331223
0.000275415
-0.0003834
0.000250217
-0.000455239
0.000252434
-0.000487644
0.000282681
-0.000460333
0.000308013
-0.00040778
0.000317743
-0.000343055
0.000326459
-0.000265244
0.000335397
-0.000104562
0.000355711
6.66013e-05
0.000344408
0.000162494
-0.000231351
0.000382585
-0.000217591
0.000325058
-0.00023536
0.000296168
-0.000281905
0.000288566
-0.000331962
0.000309713
-0.000334271
0.000341299
-0.000286755
0.000353321
-0.000211921
0.000350805
-0.000123444
0.00034666
1.01467e-06
0.000373889
9.11913e-05
0.000337116
-6.60725e-06
-0.00018962
0.000421928
-0.000159441
0.00035587
-0.000159078
0.00032655
-0.000177758
0.000318353
-0.000203254
0.000330258
-0.000208885
0.000347803
-0.00017645
0.000350948
-0.000106139
0.0003459
-3.05879e-05
0.000329249
9.75563e-05
0.000369278
0.000160281
0.000325655
-6.79278e-05
-0.000141981
0.000460205
-9.97801e-05
0.000396338
-9.2265e-05
0.000376944
-0.000109478
0.000372389
-0.000135263
0.000368215
-0.000133102
0.000359074
-9.95036e-05
0.000341306
-2.54482e-05
0.000326816
4.56729e-05
0.000290119
0.000164526
0.000316252
0.000225507
0.000261383
-0.000143262
-9.41283e-05
0.00050185
-4.90035e-05
0.000456414
-4.36983e-05
0.000445707
-7.28528e-05
0.000432291
-9.85635e-05
0.00039823
-8.76367e-05
0.000358008
-5.31678e-05
0.000305477
1.26758e-05
0.000243557
6.9705e-05
0.000143749
0.000181032
8.49101e-05
0.000235941
1.0173e-05
-0.000258488
-2.30778e-05
0.000545541
-8.28229e-06
0.000521008
-3.53274e-05
0.000498938
-7.50785e-05
0.000454759
-0.000100299
0.000377309
-0.000103458
0.000284667
-9.49253e-05
0.000170372
-6.60258e-05
3.08448e-05
-5.10679e-05
-0.00011761
3.86361e-05
-0.000231791
0.000169063
-0.000270896
-0.000313993
5.43529e-05
0.000589395
3.93008e-05
0.000563441
-1.7567e-05
0.000516771
-7.08613e-05
0.000420785
-8.79647e-05
0.00026585
-7.06587e-05
9.7891e-05
-3.92754e-05
-5.3081e-05
-8.84952e-06
-0.000196578
-1.72892e-05
-0.000308609
6.05812e-05
-0.000374442
0.000194153
-0.000303711
-0.000323071
0.000133865
0.000622963
9.34393e-05
0.000579989
3.69659e-05
0.000503579
2.65818e-05
0.00034316
7.87505e-05
0.000101685
0.000145998
-9.55569e-05
0.000183429
-0.000206511
0.000193348
-0.000270643
0.000153992
-0.000320816
0.000182584
-0.000337814
0.000254903
-0.000263351
-0.000327421
0.000205539
0.000619741
0.000173093
0.0005554
0.000172543
0.00043422
0.000269621
0.000214283
0.000399344
-1.75494e-05
0.000455555
-0.000159048
0.000431974
-0.000206869
0.000369255
-0.000234126
0.000262363
-0.000229311
0.000267791
-0.000179634
0.000306748
-0.000192607
-0.000325076
0.000302248
0.000589831
0.000323911
0.000501458
0.000415612
0.000346074
0.000537073
0.000132121
0.000588293
-2.21434e-05
0.000576979
-0.000104838
0.000527342
-0.000106461
0.00046191
-9.07675e-05
0.000440544
-5.70434e-05
0.00046192
-3.16957e-05
0.000423941
-7.80515e-05
-0.00020246
0.000442498
0.000495083
0.00050032
0.000368011
0.00058815
0.000218447
0.000656634
0.000135123
0.000662484
8.47692e-05
0.000622554
5.01635e-05
0.000600665
4.82865e-05
0.00059747
7.07209e-05
0.000585239
7.96999e-05
0.00057503
6.12958e-05
0.000481925
1.49452e-05
-1.79622e-05
3.56438e-05
-3.07876e-05
7.12891e-05
-3.10725e-05
0.000103608
-2.8693e-05
0.000133113
-1.86824e-05
0.000138237
8.39264e-06
0.000135757
1.42446e-05
0.000138018
9.24803e-06
0.000137384
7.27717e-06
0.000120845
2.81926e-05
8.10261e-05
5.03218e-05
3.38619e-05
6.52863e-05
9.8598e-05
-4.83639e-05
2.80949e-05
-7.37193e-05
6.88594e-05
-6.37901e-05
7.37471e-05
-2.21545e-05
7.47494e-05
-1.66683e-06
6.63299e-05
3.07229e-05
4.2888e-05
3.86708e-05
2.23368e-05
3.92168e-05
4.80747e-07
4.24778e-05
-3.36293e-05
8.29686e-05
-0.000108131
0.000133474
-0.000200671
0.000161784
0.000155754
-0.000251179
-1.01598e-05
-7.28997e-05
4.50355e-06
-5.55658e-05
-1.20905e-05
1.26834e-05
-2.19009e-05
2.64912e-05
-5.0722e-06
2.69767e-05
1.02258e-05
3.10636e-05
2.75852e-06
6.00699e-05
-4.85583e-05
0.000113329
-0.000135225
0.000183775
-0.00020051
0.000211918
-0.000236582
0.000206217
0.000189207
-0.000255903
-3.36412e-05
-4.67693e-05
-5.27554e-05
-2.33426e-05
-7.08374e-05
4.06852e-05
-7.87129e-05
4.02697e-05
-8.06182e-05
4.19516e-05
-8.16144e-05
5.35046e-05
-0.000106788
0.000110642
-0.000161688
0.000186526
-0.000200211
0.000231652
-0.000218017
0.000235442
-0.000226872
0.000224981
0.00020746
-0.000231223
-2.38923e-05
-2.21958e-05
-4.02301e-05
-5.45316e-07
-7.12862e-05
7.69296e-05
-0.00010526
8.17176e-05
-0.000122731
7.50537e-05
-0.000131445
8.07974e-05
-0.000137416
0.000132545
-0.000152249
0.000209554
-0.000166503
0.000250906
-0.000174012
0.00025166
-0.000177658
0.000240342
0.000220356
-0.000178899
-2.84305e-05
8.01415e-06
-3.23603e-05
1.18818e-05
-4.15561e-05
9.48763e-05
-7.83986e-05
0.00012255
-0.00010543
0.000114306
-0.000121818
0.000112568
-0.000120427
0.000142647
-0.000114466
0.000210413
-0.000119895
0.000261268
-0.000124154
0.000261002
-0.000125742
0.000244965
0.000222367
-0.000124265
-2.36623e-05
4.11564e-05
-2.82855e-05
2.69849e-05
-1.41683e-05
9.16874e-05
-3.20018e-05
0.000145167
-6.32738e-05
0.000146397
-8.49756e-05
0.000138089
-8.07847e-05
0.000151111
-5.84172e-05
0.00019568
-4.68787e-05
0.000254619
-4.6677e-05
0.00026512
-4.53907e-05
0.000230741
0.000211758
-4.84137e-05
-4.46753e-05
9.2656e-05
-5.19162e-05
4.51703e-05
-1.74268e-05
7.07932e-05
5.48539e-06
0.000132362
-5.61624e-06
0.000152659
-2.26679e-05
0.000146843
-3.08289e-05
0.000173975
-8.05496e-06
0.000159901
3.19664e-05
0.000128666
7.28037e-05
0.000125964
9.54948e-05
9.94348e-05
9.57577e-05
5.92941e-05
-4.24375e-05
0.000153925
-8.22436e-05
8.32787e-05
-6.50223e-05
6.94718e-05
-5.64492e-06
8.71559e-05
4.22401e-05
8.68802e-05
7.65312e-05
6.30476e-05
0.000137004
7.51073e-05
0.000224226
2.22485e-05
0.000305404
-5.97312e-05
0.000344173
-8.70021e-05
0.000371299
-9.17809e-05
-8.74188e-05
0.000374165
-7.69962e-05
0.000127483
-8.14781e-05
9.77891e-05
1.99882e-06
6.67344e-05
0.000108037
3.09377e-05
0.00023565
-1.66914e-06
0.000317581
-4.39696e-05
0.000376288
-7.7291e-05
0.000420998
-0.000112704
0.000453303
-0.000138774
0.000476588
-0.000156198
0.000499469
-0.000163084
-0.000171457
0.000525436
0.000438958
3.21871e-05
0.000415449
3.64767e-05
0.000444708
2.43336e-05
0.000476017
-4.71052e-06
0.000487611
-1.33855e-05
0.000496446
-3.42003e-05
0.000511322
-7.40976e-05
0.000526081
-9.76818e-05
0.000540494
-0.00010926
0.000554476
-0.000121222
0.000567288
-0.000134738
-0.00014871
0.000584625
0.000666014
-1.22768e-05
0.000663121
-6.55662e-06
0.000661232
5.91381e-07
0.000660537
6.06648e-07
0.00064875
1.24732e-05
0.000630998
2.42548e-05
0.000621936
1.41048e-05
0.00062104
1.75286e-06
0.000624209
-1.00525e-05
0.000631177
-2.83772e-05
0.000640454
-4.96082e-05
0.00064941
-6.79166e-05
-0.000166881
0.000131038
-0.000239745
9.48871e-05
-0.000278631
7.78509e-05
-0.000301008
6.4863e-05
-0.000302077
4.16194e-05
-0.000283564
1.90873e-05
-0.000245639
-5.43646e-06
-0.000197651
-3.02133e-05
-0.000119013
-5.6447e-05
-4.51672e-05
-6.20497e-05
3.00011e-05
-4.9783e-05
5.49987e-05
-0.00028225
0.000144313
-0.000309971
0.000117912
-0.000325705
0.000102237
-0.000332095
8.32446e-05
-0.000333457
5.66895e-05
-0.000326432
2.74076e-05
-0.000306778
-1.06892e-05
-0.000276939
-4.67847e-05
-0.000228187
-8.78176e-05
-0.000168306
-0.000105912
-2.14432e-05
-0.000129176
4.08158e-05
-0.000269257
0.000173883
-0.000283752
0.000151888
-0.00029752
0.00013889
-0.000307356
0.000116211
-0.000314599
8.54996e-05
-0.000313711
5.06377e-05
-0.000298311
1.12775e-06
-0.000270198
-4.36389e-05
-0.000232953
-9.71662e-05
-0.00018667
-0.000128379
-9.01435e-05
-0.00016727
-9.85653e-06
-0.000233325
0.000188134
-0.000239704
0.000168734
-0.000246855
0.000154502
-0.000251234
0.000131018
-0.000253148
9.80885e-05
-0.00024891
6.22625e-05
-0.000238668
1.04565e-05
-0.000219561
-3.82106e-05
-0.000190467
-0.000103196
-0.000155081
-0.000147227
-9.52435e-05
-0.000194732
-2.8423e-05
-0.000177377
0.00019564
-0.000175166
0.00017769
-0.000170143
0.000160073
-0.000164721
0.000134896
-0.000159625
0.000100713
-0.00014948
6.82107e-05
-0.000143145
1.76744e-05
-0.000136084
-2.5914e-05
-0.000127042
-9.84498e-05
-9.359e-05
-0.000157727
-7.88596e-06
-0.000231563
-2.33523e-05
-0.000119918
0.000195804
-0.000120803
0.000185472
-0.000118065
0.00016259
-9.94371e-05
0.000127769
-8.26239e-05
8.74354e-05
-7.01753e-05
6.21983e-05
-6.4643e-05
1.77706e-05
-6.21713e-05
-1.19095e-05
-6.92132e-05
-8.23876e-05
-5.1718e-05
-0.000150083
6.03807e-05
-0.000249966
-4.07555e-05
-5.92233e-05
0.000216061
-7.66605e-05
0.000216146
-8.3699e-05
0.000187658
-6.90812e-05
0.000135384
-4.65181e-05
7.85726e-05
-1.69815e-05
4.62893e-05
-2.00178e-06
2.32456e-06
5.41192e-07
-8.26932e-06
-1.36583e-05
-6.82216e-05
3.15163e-06
-0.000141114
0.00011557
-0.000243825
-6.41995e-05
-2.43193e-06
0.000139148
-3.04716e-05
0.000180547
-4.42488e-05
0.000200664
-3.91089e-05
0.000139297
-2.54292e-05
5.95463e-05
7.11488e-06
1.15309e-05
3.19678e-05
-3.23434e-05
3.86178e-05
-1.44918e-05
2.39938e-05
-5.43129e-05
4.29137e-05
-0.000148577
0.000159846
-0.000250512
-7.31484e-05
0.000332997
-4.86434e-05
0.000215299
3.3507e-05
6.68746e-05
9.65438e-05
1.81647e-05
7.78224e-05
3.28981e-05
2.10412e-05
5.19364e-05
-2.19049e-05
6.58909e-05
-6.19039e-05
6.7361e-05
-2.15993e-05
4.16738e-05
-4.02582e-05
6.7009e-05
-0.000159711
0.000208712
-0.000273364
-9.53955e-05
0.000534339
-0.000170262
0.000517978
-0.000123468
0.000480876
-8.58595e-05
0.000445759
-4.69567e-05
0.000425328
-3.61958e-05
0.000357967
-4.24687e-05
0.000222284
-6.3104e-05
0.00012312
-3.41789e-05
7.14307e-05
-8.46461e-06
9.52597e-05
-0.000136274
0.000274298
-0.00027594
-0.000156751
0.000606653
-0.000169593
0.000629715
-0.000177916
0.000641679
-0.00017519
0.000628399
-0.000146776
0.000605355
-0.000113424
0.000588783
-7.91115e-05
0.000558638
-6.56463e-05
0.000408465
-5.39657e-05
0.00019052
-1.16796e-05
0.000126469
-8.87679e-05
0.000287009
-0.000251112
-0.000254028
0.000660386
-0.000100226
0.000678479
-0.000128476
0.000700084
-0.000144901
0.000714814
-0.000151166
0.000717713
-0.000140333
0.00070742
-0.000112365
0.000692938
-8.57967e-05
0.00067063
-6.84307e-05
0.00062627
-5.41924e-05
0.000487627
-7.46602e-05
0.000355683
-0.000143717
0.000179325
0.00021313
0.000196081
0.000165426
0.000397504
0.000100902
0.000433481
0.000122224
0.000484805
0.000157435
0.000547946
0.000167296
0.000596904
0.000160136
0.000623146
0.0001298
0.000644197
9.17085e-05
0.000666099
6.97923e-05
0.000680353
3.90614e-05
0.000688768
9.21065e-06
-5.29586e-06
0.000694599
0.000607733
-3.11757e-05
-0.000609361
0.000626971
-4.12253e-05
0.000656772
-4.90506e-05
0.000682266
-5.36045e-05
0.000696699
-7.3463e-05
0.000711571
-9.22181e-05
0.000727272
-0.000111851
0.000749163
-0.000134672
0.000778126
-0.000155151
0.000806025
-0.000171282
0.000826636
-0.000176176
-0.000178708
0.000841295
0.000868017
-0.000197562
-0.000877375
0.000851779
-0.00019389
0.000847016
-0.000205288
0.000853451
-0.000220698
0.00086751
-0.000230646
0.000887383
-0.0002373
0.000912402
-0.000238969
0.000939364
-0.00023658
0.000962131
-0.000239096
0.000977696
-0.00023598
0.000988263
-0.000225664
-0.000213726
0.000994717
0.000926559
-0.000918261
-0.000306397
0.000941549
-0.000314313
0.000961699
-0.000323096
0.000983489
-0.000328187
0.00100667
-0.000326273
0.00102611
-0.000309933
0.00103388
-0.000267228
0.00103539
-0.000189053
0.0010394
-0.000153136
0.001041
-0.000139408
0.00104715
-0.000103902
0.00106438
-8.92092e-05
0.00069532
1.08977e-05
0.000695756
3.04574e-05
0.000707551
6.50106e-05
0.000719699
8.16448e-05
0.000717534
0.000137771