/*--------------------------------*- C++ -*----------------------------------*\
| =========                 |                                                 |
| \\      /  F ield         | OpenFOAM: The Open Source CFD Toolbox           |
|  \\    /   O peration     | Version:  2212                                  |
|   \\  /    A nd           | Website:  www.openfoam.com                      |
|    \\/     M anipulation  |                                                 |
\*---------------------------------------------------------------------------*/
FoamFile
{
    version     2.0;
    format      ascii;
    arch        "LSB;label=32;scalar=64";
    class       volScalarField;
    location    "1.5";
    object      rho;
}
// * * * * * * * * * * * * * * * * * * * * * * * * * * * * * * * * * * * * * //

dimensions      [1 -3 0 0 0 0 0];

internalField   nonuniform List<scalar> 
3312
(
1.00074
1.00069
1.00062
1.00058
1.00058
1.00058
1.00111
1.00211
1.00291
1.00355
1.00406
1.00454
1.00128
1.00123
1.0012
1.001
1.00074
1.0008
1.00207
1.00404
1.00528
1.00556
1.00562
1.00596
1.00137
1.0013
1.00124
1.00115
1.00099
1.00107
1.00297
1.00523
1.006
1.00593
1.00597
1.00661
1.00137
1.00104
1.00086
1.00093
1.00096
1.00122
1.00358
1.00575
1.006
1.00583
1.00631
1.00727
1.0009
1.00048
1.0003
1.00042
1.00072
1.00105
1.00335
1.0055
1.00554
1.00522
1.00621
1.00739
1.00073
1.00032
1.0002
1.0002
1.0004
1.00074
1.00267
1.00486
1.00466
1.00449
1.00609
1.00747
1.00068
1.00036
1.00023
1.0002
1.00021
1.00046
1.00171
1.00406
1.00371
1.00276
1.00446
1.00688
1.00058
1.00034
1.00023
1.0002
1.0002
1.00025
1.00078
1.00291
1.00298
1.00253
1.00254
1.0034
1.00039
1.00021
1.0002
1.0002
1.0002
1.0002
1.0005
1.00201
1.00277
1.00261
1.00235
1.00221
1.00054
1.00032
1.00022
1.0002
1.0002
1.00022
1.0003
1.00091
1.00137
1.00129
1.00129
1.00129
1.00054
1.00029
1.0002
1.0002
1.0002
1.0002
1.00559
1.02261
1.03408
1.06526
1.11832
1.15596
1.00029
1.00029
1.07129
1.26731
1.66667
2.47967
4.00526
6.2127
8.43562
12.4212
17.2664
20.5167
1.00512
1.00561
1.00633
1.00819
1.01017
1.01078
1.01057
1.01057
1.01088
1.01161
1.01543
1.23457
1.00638
1.00686
1.00834
1.01009
1.01162
1.01352
1.01316
1.01363
1.01684
1.02188
1.0266
1.2328
1.0075
1.00881
1.01082
1.01291
1.01526
1.02597
1.04474
1.0709
1.17021
1.21048
1.12227
1.29379
1.00847
1.01008
1.01217
1.01501
1.02192
1.0514
1.15468
1.45668
2.02885
1.88535
1.44519
1.55222
1.00875
1.01063
1.01338
1.01817
1.0319
1.08403
1.27574
1.93223
2.78491
2.50768
1.82918
1.92785
1.00887
1.01105
1.01509
1.02431
1.04762
1.10772
1.30492
1.90927
2.78226
2.64485
2.0095
2.18087
1.00892
1.01112
1.01681
1.0342
1.07305
1.11594
1.19034
1.47585
2.25085
2.65071
2.19103
2.24708
1.00597
1.01096
1.01965
1.04751
1.09705
1.1084
1.09182
1.1195
1.45404
2.49613
2.51933
2.36946
1.00235
1.00396
1.01652
1.06343
1.0991
1.09898
1.06508
1.05401
1.06325
1.21621
2.26764
2.75469
1.00129
1.00129
1.00247
1.02013
1.07083
1.08466
1.06076
1.05337
1.05278
1.06442
1.54987
3.75797
1.12341
1.0231
1.00032
1.00032
1.00926
1.03902
1.05909
1.05278
1.05223
1.06163
1.17522
5.68053
20.3951
16.5127
9.19005
5.41314
2.26725
1.07999
1.05631
1.05577
1.05168
1.06612
1.20586
7.00724
1.00081
1.00081
1.00081
1.00081
1.00081
1.00081
1.00081
1.00105
1.00129
1.0013
1.0016
1.0022
1.00082
1.00083
1.00081
1.00081
1.00081
1.00084
1.00112
1.00151
1.00177
1.00195
1.00263
1.00433
1.00104
1.00122
1.00107
1.00081
1.00081
1.0011
1.0016
1.00198
1.00228
1.00283
1.00475
1.01314
1.00132
1.00158
1.0015
1.00103
1.00095
1.00152
1.00214
1.00248
1.00274
1.00339
1.00654
1.02233
1.00141
1.00171
1.00168
1.00136
1.00113
1.00182
1.00241
1.00278
1.00308
1.00417
1.01103
1.04214
1.00154
1.00195
1.00184
1.00168
1.00136
1.00188
1.00265
1.00302
1.00344
1.00555
1.02083
1.08689
1.00159
1.00261
1.00252
1.00217
1.00171
1.00197
1.00264
1.00318
1.00394
1.00781
1.03176
1.09796
1.00185
1.00381
1.00357
1.00347
1.00288
1.00244
1.00269
1.00327
1.00465
1.01075
1.03321
1.07079
1.00264
1.00382
1.00334
1.00324
1.00282
1.0025
1.00267
1.00326
1.00507
1.01239
1.02708
1.0315
1.00338
1.00338
1.00147
1.00108
1.00194
1.00216
1.00249
1.00313
1.00497
1.01133
1.0206
1.02005
1.00339
1.00169
1.00092
1.00092
1.00093
1.00139
1.00198
1.00286
1.00462
1.01019
1.0162
1.01569
1.00216
1.00172
1.06252
1.01482
1.00108
1.0012
1.00176
1.00246
1.00355
1.00588
1.01309
1.09201
1.00414
1.01157
1.03901
1.11743
1.25846
1.40796
1.48921
1.49138
1.33654
1.16184
1.06819
1.035
1.01167
1.04332
1.1483
1.35764
1.57547
1.66453
1.65919
1.56178
1.3954
1.26171
1.15176
1.09523
1.04718
1.14441
1.30764
1.44699
1.50225
1.51192
1.51424
1.50187
1.48726
1.48934
1.39677
1.27957
1.07966
1.19914
1.3234
1.37997
1.38721
1.38744
1.40961
1.4539
1.52893
1.65306
1.92709
2.388
1.12715
1.24668
1.32634
1.35343
1.36698
1.37782
1.38899
1.43546
1.52738
1.69116
2.74194
6.55234
1.19979
1.2893
1.33388
1.36398
1.40623
1.44272
1.44781
1.45801
1.54075
1.69138
3.37972
12.5637
1.19
1.2395
1.25246
1.27437
1.37001
1.53382
1.60537
1.58265
1.61751
1.71866
3.38326
13.1878
1.0881
1.07994
1.07133
1.07109
1.12464
1.36835
1.70634
1.78057
1.79658
1.8315
2.89676
13.197
1.02213
1.01219
1.0086
1.00797
1.01119
1.13199
1.59331
1.8731
1.94971
1.98704
2.87326
10.3635
1.01549
1.00949
1.00653
1.00649
1.01385
1.12948
1.47883
1.78086
1.9365
2.07732
2.68554
4.6941
1.01526
1.03064
1.10312
1.24517
1.41164
1.55202
1.69065
1.75945
1.7947
1.83846
1.81789
1.64783
1.4455
2.58587
5.08404
9.35572
14.8566
18.8871
17.0655
9.70008
3.34491
1.31751
1.16174
1.16626
1.00088
1.00088
1.00083
1.00075
1.00071
1.00066
1.00066
1.00068
1.00073
1.00086
1.00143
1.0045
1.00085
1.0006
1.00048
1.00047
1.00047
1.00047
1.00052
1.00069
1.001
1.00126
1.002
1.00568
1.00072
1.00048
1.00047
1.00047
1.00047
1.00047
1.00047
1.00077
1.00133
1.00164
1.00254
1.00638
1.00069
1.00047
1.00047
1.00047
1.00047
1.00047
1.0005
1.00108
1.0017
1.00212
1.00333
1.00761
1.00071
1.00047
1.00047
1.00047
1.00047
1.00047
1.00069
1.0015
1.00212
1.00266
1.00418
1.0083
1.00079
1.00047
1.00047
1.00047
1.00047
1.00051
1.00109
1.002
1.00264
1.00321
1.0046
1.00788
1.0008
1.00054
1.00047
1.00047
1.00047
1.00068
1.00156
1.00256
1.00317
1.00361
1.00471
1.00738
1.0008
1.00064
1.0005
1.00047
1.00049
1.00092
1.00196
1.00301
1.00364
1.00392
1.00483
1.00745
1.0008
1.00074
1.00066
1.00047
1.00055
1.00108
1.00207
1.00304
1.00373
1.00413
1.00512
1.00837
1.00079
1.00079
1.00084
1.00065
1.00059
1.00121
1.0021
1.00303
1.00379
1.0044
1.00587
1.01155
1.00089
1.00092
1.00093
1.00092
1.00065
1.00115
1.00201
1.00293
1.00375
1.00466
1.00715
1.01539
1.00076
1.00076
1.00076
1.00081
1.00083
1.00117
1.0019
1.00278
1.00379
1.00553
1.00922
1.01662
1.01216
1.02177
1.02849
1.03091
1.03195
1.03304
1.0341
1.05385
1.12754
1.30534
1.72998
2.3504
1.01624
1.0363
1.05756
1.06563
1.06007
1.05158
1.05015
1.07506
1.15163
1.3576
2.34643
5.79761
1.0192
1.05264
1.10172
1.13292
1.1341
1.11084
1.09556
1.10071
1.16199
1.36958
2.88844
10.5773
1.02001
1.05089
1.10801
1.17524
1.2076
1.19984
1.17506
1.1609
1.19938
1.37612
2.83461
10.6774
1.01819
1.04155
1.08994
1.15939
1.22166
1.25157
1.25626
1.26057
1.31637
1.44925
2.77199
10.8071
1.01491
1.03283
1.07521
1.14609
1.21954
1.26563
1.30458
1.35475
1.46624
1.56726
2.78016
10.9394
1.01426
1.03425
1.08317
1.15894
1.22062
1.26296
1.30846
1.37518
1.46408
1.45724
2.1273
11.074
1.01549
1.04494
1.10749
1.1587
1.17478
1.17014
1.17257
1.17485
1.16295
1.09726
1.37454
13.2784
1.02171
1.06055
1.10088
1.10334
1.06734
1.03642
1.02448
1.01617
1.01052
1.00503
1.01687
19.0213
1.031
1.05773
1.06504
1.04001
1.01221
1.00419
1.00296
1.00256
1.00209
1.00206
1.02014
25.5209
1.02972
1.03856
1.02888
1.01271
1.00433
1.00341
1.0037
1.00309
1.00423
1.0248
1.34136
31.4223
1.02558
1.02461
1.01738
1.00835
1.00342
1.00342
1.01304
1.0776
1.33733
2.22469
5.17353
45.2267
1.00109
1.00107
1.00107
1.00107
1.00107
1.00107
1.00107
1.00107
1.00107
1.00107
1.00106
1.00106
1.00113
1.00107
1.00107
1.00107
1.00107
1.00107
1.00107
1.00107
1.00107
1.00106
1.00107
1.00106
1.00113
1.00107
1.00107
1.00107
1.00107
1.00107
1.00107
1.00107
1.00106
1.00107
1.00106
1.00122
1.00113
1.00107
1.00107
1.00107
1.00107
1.00112
1.00112
1.00107
1.00107
1.00107
1.00127
1.00176
1.00113
1.00108
1.00107
1.00116
1.00143
1.00148
1.00126
1.00111
1.00108
1.00118
1.0017
1.00253
1.00113
1.00107
1.00108
1.00147
1.00219
1.0022
1.00154
1.00125
1.00118
1.00132
1.00192
1.00268
1.00113
1.00113
1.00107
1.00136
1.00245
1.00284
1.00226
1.00159
1.00139
1.00144
1.00186
1.00249
1.00116
1.00138
1.00112
1.00119
1.002
1.003
1.00317
1.00265
1.00196
1.00264
1.00528
1.00662
1.00117
1.00138
1.00123
1.00119
1.00144
1.00239
1.00492
1.02597
1.08713
1.1881
1.31559
1.46102
1.00117
1.00118
1.00147
1.01241
1.04558
1.15638
1.40415
1.82824
2.3152
2.62978
2.79118
3.04303
1.11988
1.15312
1.49827
2.39496
3.60652
5.11556
6.76123
8.00058
8.40083
7.62619
6.26355
5.47997
9.13954
18.7753
32.9898
46.267
50.3825
44.8529
39.5136
33.8377
29.0536
23.0017
16.3651
10.8053
1.00106
1.00107
1.00107
1.00107
1.00107
1.00119
1.00147
1.00157
1.00156
1.00143
1.00143
1.00143
1.00118
1.0013
1.0015
1.00189
1.00238
1.00287
1.00335
1.00379
1.00399
1.00332
1.00191
1.00143
1.00156
1.00195
1.00247
1.00316
1.00393
1.00474
1.00568
1.00672
1.00771
1.00819
1.00603
1.00143
1.00241
1.0031
1.00382
1.00461
1.00549
1.00645
1.00763
1.0088
1.00981
1.01083
1.01225
1.00598
1.00329
1.00393
1.00461
1.00537
1.00631
1.00751
1.00911
1.01019
1.01083
1.01025
1.01512
1.04335
1.00347
1.0043
1.00509
1.00592
1.00722
1.0087
1.01052
1.01087
1.01189
1.0098
1.01013
1.18136
1.0033
1.00428
1.00538
1.00676
1.00854
1.00966
1.01152
1.01111
1.01284
1.00978
1.01102
1.40021
1.00348
1.00467
1.0072
1.00949
1.01047
1.01058
1.01153
1.01115
1.01286
1.00975
1.01542
1.48843
1.48024
1.22874
1.01816
1.00952
1.01029
1.01038
1.0108
1.01077
1.01271
1.00869
1.02072
1.48815
3.50611
3.71844
3.46449
2.0092
1.30009
1.09394
1.01789
1.01107
1.0119
1.00776
1.02293
1.48843
5.63937
6.27529
7.20954
8.17458
7.63781
4.79895
2.29628
1.1892
1.02285
1.00779
1.00949
1.41228
8.23988
8.16106
8.63637
10.0485
12.7258
14.4114
13.583
8.88095
3.34405
1.35316
1.01743
1.03719
8.23635
11.8898
15.2393
18.9197
25.7036
37.1915
55.225
79.2225
105.859
137.364
168.181
191.054
98.1933
100.15
105.773
117.132
137.468
167.011
198.189
228.607
270.309
274.324
274.065
274.388
211.918
213.256
217.095
223.312
223.284
223.316
223.296
220.084
207.432
191.388
175.052
159.617
199.099
195.616
188.299
176.675
163.764
152.754
144.321
126.364
98.5944
71.1068
49.1064
33.8628
199.929
195.218
181.151
166.966
137.378
75.6524
14.9419
1.04822
1.00555
1.00522
1.24532
6.65436
274.11
274.427
274.132
274.461
274.157
274.484
269.926
195.407
75.7755
19.1156
4.87126
7.45409
151.246
147.986
147.845
152.694
185.504
260.477
274.136
273.962
274.136
244.124
204.969
169.361
23.4929
16.7118
13.8913
12.0408
11.9955
23.2409
77.5903
160.007
221.645
257.597
265.81
265.833
6.06949
6.42492
4.61099
1.64361
1.00525
1.00297
1.00131
1.00134
1.01912
1.21884
1.85929
4.20266
9.20535
10.9128
10.5441
7.16817
3.25104
1.37993
1.07663
1.51026
2.81445
6.35956
13.6598
29.8485
128.045
80.5428
46.3943
26.8293
12.6678
3.91973
4.03935
11.9085
24.48
41.7034
62.4981
89.9848
263.582
241.031
181.675
115.757
117.413
138.217
148.267
123.841
106.18
110.359
119.271
131.014
10.0964
22.5202
41.4028
65.2941
91.0222
116.679
137.105
141.255
128.055
95.1359
50.2842
19.0416
55.6689
88.4152
119.755
145.549
162.969
175.534
190.559
210.403
242.258
280.676
281.535
269.697
116.06
136.2
153.097
164.651
171.363
172.9
175.579
181.772
193.795
217.245
249.407
303.767
137.812
137.692
133.206
125.901
117.462
109.313
102.515
99.0742
98.0803
96.9689
109.153
136.402
4.27559
1.00076
1.00076
1.00076
1.00076
1.00076
1.00076
1.00076
1.00076
1.00205
1.00514
1.01033
230.13
187.874
160.007
135.413
99.8965
64.9265
39.9063
20.3299
6.37148
1.32792
1.11488
1.19615
328.464
328.456
328.469
328.46
326.636
309.175
280.169
237.237
171.675
100.691
60.2067
59.7154
177.849
220.271
261.643
305.698
329.096
328.998
329.107
328.94
329.012
319.891
283.288
279.327
1.00582
1.00322
1.00299
1.04623
1.25921
1.8539
3.4521
7.15763
13.8285
25.1709
44.2567
76.574
2.28373
5.07579
9.15154
17.2243
29.9968
46.2842
67.4737
94
123.79
154.382
186.373
216.31
73.5647
98.223
140.535
206.69
261.403
295.894
308.743
304.213
284.944
277.605
274.688
268.77
310.396
354.489
408.432
414.636
412.586
394.625
364.948
327.112
286.79
244.554
205.158
173.868
113.511
151.541
188.587
215.28
226.139
216.028
180.785
141.157
105.823
75.081
49.2378
30.2172
244.933
276.693
284.964
285.339
285.027
285.39
285.039
280.32
255.978
204.165
145.679
96.6687
261.589
252.079
241.582
230.844
223.77
228.835
232.778
236.733
236.546
236.04
227.055
199.401
150.641
133.215
120.778
112.922
112.768
112.784
119.059
134.958
163.666
203.631
216.017
211.897
17.2156
11.0984
10.7337
11.2194
12.5867
16.2218
21.8981
24.6615
21.8133
12.9308
3.00758
2.67442
57.3456
29.3431
19.7587
20.1164
22.1632
25.822
33.2978
45.406
51.46
57.6686
71.2932
89.876
157.56
108.67
66.6373
54.303
56.5425
60.7398
68.951
85.1433
111.801
146.576
189.398
210.563
202.907
179.81
142.045
107.526
98.5448
102.895
110.628
124.113
149.041
190.655
200.585
200.196
108.161
105.772
100.865
92.0366
85.269
96.4897
113.094
86.3219
37.3295
13.0399
5.22971
6.46208
99.0782
99.526
96.2352
86.1222
77.985
100.573
135.781
111.406
41.5817
12.5589
5.24457
13.986
99.0819
99.6829
95.8848
81.9576
66.0931
86.8065
135.442
120.053
38.3858
8.39346
6.65831
24.0959
99.0782
99.7461
94.7847
77.4754
56.7743
73.8194
108.93
80.526
24.4002
7.81062
8.18967
27.7625
5.6428
5.50166
5.49057
10.8357
15.1764
14.9808
29.0371
58.106
94.2188
184.54
265.833
265.942
20.2465
14.4819
11.7383
15.5369
13.6609
9.84064
10.2534
12.2524
17.3324
64.3242
248.423
273.331
58.5259
19.8751
11.8607
18.9601
13.9943
9.84671
9.98642
9.28212
9.2937
15.5832
133.877
274.034
81.0151
17.8668
12.1168
19.0005
15.95
13.287
12.995
10.3605
9.29553
9.44082
31.6387
215.261
261.485
260.469
261.042
268.693
273.818
273.448
273.818
177.961
98.8168
97.8588
119.688
126.747
269.759
274.434
274.04
274.568
177.405
69.8868
38.8678
50.5724
53.4259
72.9655
110.502
106.886
274.446
274.062
261.034
151.207
35.1254
20.3297
22.4259
28.9562
49.1974
100.41
130.089
103.68
247.192
217.838
125.461
28.4744
14.0229
15.6913
22.6579
36.7046
70.3383
138.776
132.865
90.1222
117.501
102.036
84.5192
66.1537
46.3537
30.1101
21.6981
20.3114
21.7888
22.7703
29.0962
45.0238
91.5744
73.8394
59.0815
42.7461
24.9934
12.5477
11.8489
11.7082
11.816
11.6885
11.807
13.3497
88.6206
66.746
49.9659
27.8066
13.4247
11.8563
11.7719
11.8193
11.7104
11.784
11.6938
11.808
145.901
71.8003
56.8824
49.9783
44.5318
21.8575
12.3967
11.758
11.8093
11.7207
11.7695
11.6953
68.199
87.2345
138.381
220.805
296.598
329.185
329.008
329.107
328.94
322.725
352.806
437.809
14.479
16.4689
45.1883
94.7288
137.626
221.996
291.72
316.485
312.164
329.844
420.35
485.707
11.6784
11.8271
28.0404
48.2522
45.7412
80.7687
149.594
215.033
267.961
359.953
453.1
484.284
11.7914
11.6881
36.1408
45.1942
45.032
58.5434
93.5561
163.053
274.095
389.27
443.577
451.088
497.79
497.783
485.379
376.439
170.024
90.6637
88.1418
107.493
111.743
92.1893
81.1808
78.1662
497.797
488.782
384.348
150.988
30.7817
26.8587
33.0473
67.9288
68.8606
64.0145
65.5317
76.2649
497.804
462.451
246.237
87.7017
27.1949
26.914
46.0625
67.5242
63.8139
63.9139
81.9402
83.5381
498.156
451.481
182.943
57.5139
26.914
27.3066
59.5639
63.6136
63.7135
76.8177
86.3805
80.6547
75.2254
71.9258
71.5001
101.145
136.85
136.979
138.973
155.178
173.271
186.463
186.833
174.772
79.7494
71.7849
67.4858
87.2344
131.246
137.725
140.493
160.62
178.705
186.835
181.868
174.477
83.4535
74.0907
67.394
76.1012
109.625
122.553
119.812
143.731
187.627
206.649
207.44
208.153
63.381
58.8404
46.9321
53.4201
104.877
119.789
105.727
114.916
195.791
243.194
242.707
223.284
160.354
159.497
216.499
229.697
223.06
120.004
85.5519
120.409
147.152
147.04
128.782
112.483
203.799
225.257
226.788
189.976
91.638
31.7291
21.5455
60.2794
108.082
117.263
107.744
99.1601
234.279
234.068
166.284
64.6468
17.8357
10.8995
15.7506
51.6777
105.734
117.141
108.062
99.2302
208.988
161.765
62.007
14.9825
8.55749
8.78041
13.3508
42.8688
103.177
117.16
108.344
99.611
99.5083
99.8602
94.2689
74.4946
49.0922
61.0434
78.1787
47.0809
14.812
7.8207
12.6973
28.8547
99.7869
99.9259
94.06
73.0903
43.6051
45.1303
82.0034
46.6957
15.4657
16.9194
28.1794
35.7785
100.033
100.256
93.9612
72.7457
39.9481
21.4462
82.2946
79.1838
33.3619
51.5533
53.6761
40.8455
100.151
100.347
94.2389
72.402
35.9142
7.72701
49.8664
85.1915
85.0204
85.1915
68.2161
29.1014
100.274
100.34
94.7265
71.3975
29.8838
5.21662
6.90381
47.9999
82.5713
78.5272
43.2235
9.65357
100.376
100.323
94.8069
67.1064
21.4993
2.98636
1.20916
10.251
35.381
27.2028
9.69331
1.66061
100.484
100.369
94.6423
58.5121
12.5785
1.43504
1.06753
2.03254
5.50481
3.05829
1.43811
1.02264
100.564
100.348
94.2921
47.2611
6.25043
1.05657
1.02548
1.11707
1.21464
1.06913
1.01782
1.00607
100.631
100.419
94.2489
34.7341
3.11624
1.00452
1.00425
1.01555
1.0102
1.00738
1.00499
1.00494
100.711
100.648
95.1065
23.2847
1.84583
1.00802
1.00288
1.00293
1.00568
1.01328
1.00518
1.00541
100.766
100.729
95.5022
14.5328
1.40856
1.01596
1.00375
1.00362
1.01556
1.03303
1.01089
1.00656
100.766
100.705
98.5963
9.09727
1.13536
1.0546
1.03452
1.03724
1.0425
1.0425
1.0425
1.03734
80.6931
21.9259
28.799
23.6671
26.8558
25.3096
17.6684
14.0278
12.2592
11.5542
14.1809
73.8463
81.2095
47.1386
58.4489
66.1889
58.5754
41.8609
20.2014
18.9867
16.653
14.0725
14.1086
20.5303
80.6931
73.3743
64.9981
77.828
77.7349
49.4572
19.5539
18.8167
15.9017
13.2398
14.5141
19.0214
81.086
65.0234
30.1836
60.1664
77.828
55.372
19.8314
13.182
11.371
10.8069
13.5243
16.6594
80.6931
50.9783
29.44
29.5908
70.5966
61.2051
27.6354
10.6162
10.6181
10.582
10.7709
10.5998
52.7642
34.8185
34.2511
30.1192
19.9174
44.095
34.0861
11.2971
10.543
10.5926
10.5334
10.5912
25.6859
28.5629
23.1803
6.61508
5.95797
24.5063
37.5661
15.6924
10.6005
10.5132
10.5763
10.5379
15.0362
26.6664
9.39279
2.90125
3.75379
18.099
38.5781
38.4872
18.6317
10.6005
10.5011
10.5924
12.4837
19.7441
6.62697
2.90524
2.90264
6.43325
29.6709
44.0881
43.9987
27.4459
18.5931
17.5378
12.4877
12.7721
6.64073
2.90264
2.90411
2.90393
5.98323
27.0673
46.2666
53.8724
48.3869
42.0459
12.7508
11.199
5.89709
2.90524
2.9041
2.9055
2.90692
16.1241
65.3264
189.833
231.061
181.163
25.8945
61.7955
88.3209
105.999
146.928
204.325
248.831
273.374
273.374
273.37
273.37
273.366
106.878
75.6774
31.2189
12.8665
11.4163
13.8117
23.0982
44.4417
88.5522
152.354
125.06
79.9939
29.3922
24.0918
14.8492
10.6925
10.7777
13.4096
23.7634
50.7352
103.404
152.272
122.486
80.0882
20.9237
15.2036
10.6679
10.6128
10.8458
13.8572
25.0416
56.0795
115.498
152.458
123.06
96.219
13.834
10.6295
10.5666
10.6679
11.4884
16.078
28.378
61.0682
126.71
152.272
120.59
120.728
10.6123
10.5615
10.6295
10.7107
12.9349
19.1487
33.2358
69.1594
137.653
152.438
125.202
154.622
10.5389
10.6123
10.5787
11.325
14.6038
22.2297
38.6945
77.4801
143.994
151.342
131.321
195.473
10.5838
10.5527
10.6159
11.4903
15.2226
24.5438
44.7251
86.2915
150.807
145.129
132.304
226.38
10.5379
10.6159
10.6084
10.8258
14.3186
24.9753
48.2165
92.6724
158.075
141.207
132.392
231.346
19.9218
19.811
14.1314
12.1873
15.3851
27.0686
52.9509
101.674
162.325
133.997
117.848
230.901
35.0105
22.6188
13.2427
12.3929
16.4281
29.4527
53.3948
109.26
162.407
115.348
107.687
222.159
68.6967
24.3586
16.5452
29.7884
54.8317
84.8952
105.063
139.769
135.016
86.3208
98.3085
215.934
273.366
216.986
216.962
216.917
216.863
216.809
216.755
213.881
129.051
86.0527
101.752
204.34
233.76
68.0934
59.8716
75.5076
77.3206
71.5671
45.1643
24.357
17.2396
16.9103
18.333
18.7223
261.143
34.8834
26.1971
17.7557
20.1238
42.1185
47.6914
48.8686
53.45
55.8063
46.5763
27.0979
270.35
9.71606
4.61477
2.21897
2.2251
9.89696
22.616
34.7144
67.8699
62.5625
38.1936
21.5728
280.203
5.48521
1.9584
1.94396
1.94066
2.04182
3.76402
13.9927
71.3771
49.0893
22.5605
21.3001
288.375
7.93061
1.94396
1.93902
1.94179
1.93912
1.94179
7.91329
84.2249
33.7605
21.3001
21.2748
298.239
13.6427
1.94374
1.94395
1.93709
1.94179
2.04052
10.9787
102.94
34.5939
21.8015
24.3844
312.137
26.7341
2.09652
1.93729
1.9439
2.06186
5.43376
23.4022
126.592
44.4763
25.5664
35.9806
327.967
50.5333
2.33636
1.94607
2.28713
8.34188
30.2357
60.5233
128.671
63.7771
33.3045
51.7174
339.415
81.3699
3.03506
1.94558
4.4803
24.2061
68.2938
119.043
128.677
84.5481
45.5361
60.2398
339.407
120.954
5.42911
1.99103
5.67597
25.003
62.0662
103.222
128.671
112.964
63.5968
62.8435
339.397
218.578
31.4183
3.40188
18.8416
81.4938
110.747
102.909
103.979
127.394
85.1196
66.6186
339.388
339.377
298.426
248.657
274.903
300.065
270.271
109.182
61.9835
127.387
103.169
72.2446
14.0116
15.6989
51.7681
46.8875
45.0843
63.9832
99.633
171.302
292.673
401.449
437.253
450.155
16.0568
25.3925
60.8721
51.2955
55.798
80.9314
120.996
192.22
305.409
388.48
395.727
464.935
17.4798
36.7133
74.4858
61.1568
78.543
119.494
170.795
239.338
320.558
369.832
333.521
464.922
21.586
59.7334
96.5168
74.0568
110.088
176.515
246.054
318.734
347.444
334.56
333.574
463.991
34.4232
101.043
108.843
95.6503
153.159
238.637
327.117
375.321
362.079
271.757
431.216
447.533
63.3208
108.843
109.213
140.724
223.633
309.979
375.282
382.912
346.735
271.673
485.555
436.188
88.9335
107.642
96.4137
139.858
241.823
335.147
378.144
386.953
375.367
352.377
488.824
436.185
88.7369
91.4248
90.8323
192.502
320.589
377.602
404.674
433.795
457.98
473.182
488.818
439.124
79.791
82.2244
180.421
418.869
449.466
449.669
463.051
480.367
488.833
488.818
488.83
453.914
71.4262
122.788
368.812
481
481.007
481.371
484.69
487.899
488.818
488.833
481.114
458.574
76.7202
207.62
459.067
480.83
480.418
480.458
481.765
482.266
477.889
476.099
453.458
458.415
99.1633
310.572
486.646
489.579
489.58
486.975
485.256
480.875
472.418
452.529
451.87
458.413
498.156
446.079
154.042
49.1106
26.9054
33.293
64.799
68.356
77.0089
94.7297
86.1886
60.5707
498.156
441.048
140.28
44.8005
26.914
40.3853
64.8175
73.9661
89.3532
95.9147
75.5152
50.1541
497.977
436.004
138.81
42.4367
28.331
47.6632
64.7304
76.9899
93.9901
95.8268
67.1911
48.6085
497.817
431.386
141.902
43.08
32.741
49.5381
63.0134
77.7325
93.9878
93.3125
61.9956
48.5895
498.146
435.248
150.391
47.1116
43.7328
50.1522
54.2802
71.8281
88.9619
84.9814
56.4807
47.9729
498.438
455.494
187.192
47.0972
47.2302
47.2461
51.5255
65.7935
81.1152
66.6344
48.3034
48.3272
498.968
480.885
287.38
64.9634
43.0347
39.0292
48.1927
59.6728
66.6695
50.8891
42.2418
48.957
498.968
496.337
428.364
167.343
50.8019
39.0259
50.3087
60.5144
64.4642
47.4369
40.0747
47.0584
498.969
498.968
492.878
401.526
160.085
56.3994
50.2922
56.3129
52.3746
39.716
39.6928
42.1964
498.968
498.969
498.969
495.245
435.127
262.716
167.198
134.143
126.344
120.484
91.8281
76.0033
498.969
498.969
498.969
498.968
498.579
496.548
490.348
473.998
469.798
487.524
482.64
432.558
498.966
498.966
498.968
498.969
498.968
498.968
498.967
498.968
498.967
498.967
498.966
498.619
48.7961
47.6234
46.7734
46.8304
102.063
123.762
100.617
95.8784
181.837
243.487
237.05
196.038
46.8304
46.652
46.8173
48.0514
101.16
123.668
98.2472
95.4802
139.39
213.553
216.178
190.568
46.5364
46.8173
46.3917
50.3435
100.387
122.402
98.9036
95.3856
100.507
176.492
206.64
190.597
46.8304
46.3865
46.8173
54.656
105.298
128.495
106.506
95.4802
97.3966
164.476
190.327
163.714
46.4371
46.8304
46.5126
76.9521
126.698
141.687
108.703
95.3856
112.666
174.295
190.216
134.394
47.8804
48.625
71.5424
118.708
143.112
142.735
116.816
104.39
142.441
176.555
190.11
150.207
57.7712
67.5683
86.5645
116.557
141.045
146.088
148.821
150.656
160.561
143.048
70.9794
206.745
61.9637
72.3413
86.6904
119.54
152.042
171.163
195.492
203.249
160.261
108.713
56.2967
237.918
64.5167
73.046
88.7684
126.635
168.379
201.857
219.878
219.735
153.156
89.8503
56.2813
267.471
78.4211
89.282
105.824
133.106
160.365
191.342
203.187
197.639
122.422
57.1701
56.2967
296.821
371.923
349.06
352.701
361.481
343.36
304.845
262.656
212.787
122.307
79.5529
145.212
353.5
497.535
497.523
496.675
495.07
493.634
478.421
440.37
384.039
309.342
260.421
351.124
363.162
209.041
70.1603
18.3777
8.17662
8.1759
9.51254
15.3265
34.474
97.7677
117.162
108.575
99.8957
198.401
32.0898
11.5492
8.72244
8.17662
10.7486
16.9365
26.5566
90.5761
117.163
108.596
100.084
209.626
35.146
9.97624
9.57873
9.74384
14.0034
18.2284
21.8835
79.9364
117.165
107.256
100.166
244.894
42.342
7.35592
7.3355
10.784
18.1792
18.5098
19.764
68.4216
117.164
105.666
100.161
251.926
37.2408
7.9201
13.2587
20.2497
23.7367
19.9403
20.3606
57.8929
117.164
104.01
100.189
252.005
21.0568
16.4431
24.6216
26.6335
26.631
20.1017
19.081
50.5035
117.163
102.55
100.25
225.402
19.7623
19.5063
23.4582
26.62
25.4092
19.8224
19.0888
45.4875
117.016
101.446
100.37
137.759
24.3655
16.9915
19.9205
24.4541
24.9433
21.624
20.1953
42.059
115.61
101.146
100.509
57.5984
22.878
16.9884
17.2431
21.6863
24.9626
23.7275
20.4089
41.7346
114.173
100.994
100.616
47.1396
31.3972
17.1608
17.1473
19.1594
19.4727
19.4823
20.0665
62.4251
111.817
100.777
100.656
120.058
182.045
186.346
167.528
179.999
170.409
61.347
74.3059
124.342
108.221
100.707
100.694
341.108
347.484
347.514
347.485
347.514
347.485
344.234
307.689
222.843
103.697
100.74
100.737
100.74
100.756
100.787
100.787
100.783
100.798
100.798
100.8
100.799
100.8
100.8
100.801
100.8
100.8
100.8
100.8
100.8
100.8
100.8
100.8
100.707
100.707
100.707
100.776
100.782
100.792
100.795
100.798
100.798
100.8
100.8
100.8
100.8
100.8
100.8
100.8
100.8
100.8
100.8
100.8
100.771
100.806
100.806
100.817
100.817
100.817
100.817
100.817
100.817
100.817
100.815
100.815
100.814
100.814
100.812
100.81
100.808
100.806
100.804
100.802
100.76
100.779
100.779
100.802
100.808
100.814
100.815
100.815
100.815
100.815
100.815
100.815
100.815
100.815
100.811
100.81
100.808
100.806
100.803
100.802
100.76
100.76
100.777
100.786
100.798
100.802
100.805
100.804
100.801
100.805
100.802
100.802
100.8
100.8
100.8
100.8
100.8
100.8
100.8
100.8
100.76
100.781
100.786
100.786
100.798
100.798
100.798
100.8
100.799
100.8
100.8
100.801
100.8
100.8
100.8
100.8
100.8
100.8
100.8
100.8
120.778
67.287
21.6424
17.1152
16.7021
17.1152
17.0351
18.9756
32.8559
65.4422
92.7019
93.94
93.9399
89.5127
52.2642
19.1912
12.7166
13.6231
17.149
28.5366
107.1
96.6665
65.1522
41.4247
28.9066
18.713
17.1152
17.6138
26.2121
46.9124
67.6686
76.9429
77.6178
68.3206
34.8231
13.9864
12.6904
12.7052
12.6928
14.1553
79.6163
98.4637
143.322
188.757
183.39
133.67
70.0004
72.141
95.6442
117.633
118.387
111.079
83.9127
36.3381
17.6445
16.144
20.594
31.038
50.1298
71.3662
142.847
210.242
320.234
363.08
363.028
355.147
337.133
309.697
260.232
189.707
151.16
134.767
91.2554
43.8042
42.3714
60.5942
116.564
166.407
176.569
191.519
414.883
413.454
398.866
361.205
343.362
313.042
216.384
148.425
147.554
147.261
153.424
159.524
137.575
130.745
161.508
229.25
231.121
229.921
188.952
164.139
481.469
308.32
153.565
147.754
147.428
147.685
147.292
147.623
147.288
147.554
166.812
180.581
182.156
182.161
165.567
124.584
119.577
119.534
120.648
124.272
)
;

boundaryField
{
    rotor
    {
        type            calculated;
        value           nonuniform List<scalar> 
192
(
1.00074
1.00069
1.00062
1.00058
1.00058
1.00058
1.00111
1.00211
1.00291
1.00355
1.00406
1.00454
1.00512
1.00561
1.00633
1.00819
1.01017
1.01078
1.01057
1.01057
1.01088
1.01161
1.01543
1.23457
1.00081
1.00081
1.00081
1.00081
1.00081
1.00081
1.00081
1.00105
1.00129
1.0013
1.0016
1.0022
1.00414
1.01157
1.03901
1.11743
1.25846
1.40796
1.48921
1.49138
1.33654
1.16184
1.06819
1.035
1.00088
1.00088
1.00083
1.00075
1.00071
1.00066
1.00066
1.00068
1.00073
1.00086
1.00143
1.0045
1.01216
1.02177
1.02849
1.03091
1.03195
1.03304
1.0341
1.05385
1.12754
1.30534
1.72998
2.3504
1.00109
1.00107
1.00107
1.00107
1.00107
1.00107
1.00107
1.00107
1.00107
1.00107
1.00106
1.00106
1.00106
1.00107
1.00107
1.00107
1.00107
1.00119
1.00147
1.00157
1.00156
1.00143
1.00143
1.00143
1.00074
1.00128
1.00137
1.00137
1.0009
1.00073
1.00068
1.00058
1.00039
1.00054
1.00054
1.00029
1.00143
1.00143
1.00143
1.00598
1.04335
1.18136
1.40021
1.48843
1.48815
1.48843
1.41228
1.03719
1.00081
1.00082
1.00104
1.00132
1.00141
1.00154
1.00159
1.00185
1.00264
1.00338
1.00339
1.00216
1.23457
1.2328
1.29379
1.55222
1.92785
2.18087
2.24708
2.36946
2.75469
3.75797
5.68053
7.00724
1.00088
1.00085
1.00072
1.00069
1.00071
1.00079
1.0008
1.0008
1.0008
1.00079
1.00089
1.00076
1.035
1.09523
1.27957
2.388
6.55234
12.5637
13.1878
13.197
10.3635
4.6941
1.64783
1.16626
1.00109
1.00113
1.00113
1.00113
1.00113
1.00113
1.00113
1.00116
1.00117
1.00117
1.11988
9.13954
2.3504
5.79761
10.5773
10.6774
10.8071
10.9394
11.074
13.2784
19.0213
25.5209
31.4223
45.2267
)
;
    }
    stator
    {
        type            calculated;
        value           nonuniform List<scalar> 
260
(
9.09727
1.13536
1.0546
1.03452
1.03724
1.0425
1.0425
1.0425
1.03734
25.8945
61.7955
88.3209
105.999
146.928
204.325
248.831
273.374
273.374
273.37
273.37
273.366
273.366
216.986
216.962
216.917
216.863
216.809
216.755
213.881
129.051
86.0527
101.752
204.34
339.388
339.377
298.426
248.657
274.903
300.065
270.271
109.182
61.9835
489.579
489.58
486.975
485.256
480.875
472.418
452.529
451.87
458.413
498.966
498.966
498.968
498.969
498.968
498.968
498.967
498.968
498.967
498.967
498.966
498.619
497.535
497.523
496.675
495.07
493.634
478.421
440.37
384.039
309.342
260.421
351.124
363.162
341.108
347.484
347.514
347.485
347.514
347.485
344.234
307.689
222.843
80.6931
81.2095
80.6931
81.086
80.6931
52.7642
25.6859
15.0362
12.4837
12.4877
12.7508
25.8945
28.8547
35.7785
40.8455
29.1014
9.65357
1.66061
1.02264
1.00607
1.00494
1.00541
1.00656
1.03734
233.76
261.143
270.35
280.203
288.375
298.239
312.137
327.967
339.415
339.407
339.397
339.388
79.9939
80.0882
96.219
120.728
154.622
195.473
226.38
231.346
230.901
222.159
215.934
204.34
498.156
498.156
497.977
497.817
498.146
498.438
498.968
498.968
498.969
498.968
498.969
498.966
450.155
464.935
464.922
463.991
447.533
436.188
436.185
439.124
453.914
458.574
458.415
458.413
209.041
198.401
209.626
244.894
251.926
252.005
225.402
137.759
57.5984