/*--------------------------------*- C++ -*----------------------------------*\
| =========                 |                                                 |
| \\      /  F ield         | OpenFOAM: The Open Source CFD Toolbox           |
|  \\    /   O peration     | Version:  2212                                  |
|   \\  /    A nd           | Website:  www.openfoam.com                      |
|    \\/     M anipulation  |                                                 |
\*---------------------------------------------------------------------------*/
FoamFile
{
    version     2.0;
    format      ascii;
    arch        "LSB;label=32;scalar=64";
    class       volVectorField;
    location    "1.5";
    object      U;
}
// * * * * * * * * * * * * * * * * * * * * * * * * * * * * * * * * * * * * * //

dimensions      [0 1 -1 0 0 0 0];

internalField   nonuniform List<vector> 
3312
(
(0.0445186 12.9361 0)
(0.148381 10.7528 -7.02777e-25)
(0.848464 9.45335 -4.00496e-25)
(1.55847 8.2236 0)
(1.97235 7.809 1.2199e-25)
(2.22399 7.27919 -1.00554e-24)
(2.33095 6.52845 6.14105e-24)
(2.32466 6.59183 1.09433e-23)
(2.78037 7.67835 -4.2427e-25)
(4.19663 8.06025 2.77557e-23)
(10.1386 7.94872 -2.34172e-24)
(23.606 5.03705 6.50437e-24)
(-4.3048 14.6119 1.80734e-24)
(-3.70446 12.1396 2.54596e-24)
(-1.61795 11.0675 0)
(0.399972 9.86642 5.11764e-24)
(1.9169 9.84999 2.03813e-24)
(2.37685 10.5974 1.74437e-24)
(4.16904 10.8799 0)
(8.46835 9.76743 -1.90251e-24)
(12.5923 10.33 0)
(18.111 10.3043 0)
(29.5424 10.2334 0)
(35.3723 10.1707 0)
(-5.44145 16.4959 0)
(-4.66757 13.875 0)
(-1.51434 13.0808 0)
(1.75063 11.7797 -2.67367e-24)
(5.08649 11.8374 -1.04119e-24)
(6.90601 12.3527 7.72591e-24)
(9.26 13.9461 4.22442e-24)
(12.5246 13.3138 0)
(16.9556 12.6674 0)
(24.8608 9.8 1.93745e-24)
(34.8538 7.58281 2.42329e-24)
(37.4765 6.78876 0)
(-8.07754 18.4579 0)
(-6.87585 15.6468 6.23038e-25)
(-2.62094 15.343 0)
(2.05792 13.4419 0)
(6.28444 13.832 1.18571e-24)
(8.80154 14.1417 2.05692e-23)
(11.6283 15.5112 1.21535e-23)
(15.0409 14.2393 0)
(20.0136 12.4508 0)
(28.0502 8.31891 -1.58087e-23)
(35.1682 4.66044 0)
(36.3535 3.91344 0)
(-8.63875 20.2979 -3.60007e-24)
(-7.01869 18.1342 -3.0728e-24)
(-2.23386 18.1064 0)
(3.52795 15.6597 2.27536e-24)
(9.41929 15.2591 4.48392e-24)
(12.7409 15.4229 2.48885e-23)
(14.4442 16.7135 -1.55636e-23)
(15.9739 15.953 0)
(20.7316 13.2669 0)
(28.1273 8.70013 1.28006e-23)
(33.2728 2.92632 2.7485e-24)
(34.1281 0.916281 3.4627e-23)
(-9.16435 22.4007 3.8647e-24)
(-7.30242 21.6682 5.50505e-24)
(-2.58338 21.5165 0)
(3.84488 19.8703 1.03444e-23)
(10.6602 17.9609 -1.14095e-23)
(14.1304 17.6057 5.09676e-23)
(15.1296 17.7877 6.11558e-24)
(16.6843 17.3618 0)
(22.166 14.6536 0)
(27.4728 10.2281 2.04334e-23)
(31.0456 3.80151 -6.79675e-23)
(30.7018 0.536243 0)
(-7.12165 24.5016 -3.5698e-24)
(-6.04989 24.9438 -3.2176e-24)
(-1.24534 25.8553 -7.33373e-24)
(5.13532 23.9837 2.23793e-23)
(12.0954 21.3821 -2.11448e-23)
(15.8488 20.0173 -4.56368e-23)
(16.7077 19.5358 5.20703e-23)
(18.6824 19.1947 -5.96445e-23)
(22.7762 16.4976 0)
(25.8873 12.4984 -9.47798e-23)
(27.8968 6.37189 -1.48511e-22)
(27.2807 1.28074 2.81695e-23)
(-4.9744 26.6031 6.2215e-24)
(-3.85261 28.3255 3.63232e-23)
(-0.342369 29.7192 -3.35761e-23)
(5.16973 29.1654 3.87825e-23)
(12.3666 25.9109 -2.6762e-23)
(16.1988 23.7766 -1.0482e-22)
(17.6462 22.4076 1.36073e-22)
(19.3214 21.5642 -3.37368e-23)
(22.2467 18.4917 -7.09514e-23)
(23.8992 14.9741 8.34626e-28)
(24.9424 9.89059 -1.48045e-22)
(24.3255 4.85935 2.25911e-23)
(-1.33849 27.7952 9.50668e-24)
(-1.79268 30.8793 -8.17167e-29)
(1.78502 32.3302 2.21918e-28)
(6.72143 33.8569 0)
(12.8306 30.811 -1.00229e-23)
(17.0782 27.944 -9.58694e-23)
(18.7669 25.8142 -3.36409e-23)
(19.8043 23.6698 -3.40657e-23)
(21.8131 20.4153 -6.23422e-23)
(22.4212 16.4885 6.11223e-23)
(22.4435 11.4421 -6.34228e-23)
(21.4067 6.75531 1.32373e-22)
(1.64707 29.5438 9.8332e-24)
(1.52816 32.1282 -1.11331e-23)
(4.61281 34.4252 3.68117e-23)
(8.41015 36.2132 2.43295e-24)
(12.6247 34.2441 -8.96401e-23)
(16.4588 30.9386 -9.50155e-23)
(17.0838 27.326 -2.75906e-23)
(17.659 24.8351 -1.60597e-23)
(18.5322 20.9307 -1.52171e-23)
(17.6163 17.6456 0)
(18.0477 13.4905 -2.95856e-24)
(17.0076 8.50036 3.26446e-23)
(4.0479 27.9161 4.77306e-24)
(2.56599 32.6449 6.7568e-25)
(6.08143 33.7128 0)
(8.32381 35.2244 -6.06111e-23)
(11.0793 34.1512 -5.81942e-23)
(13.5953 31.6722 -1.08813e-28)
(14.1769 26.9234 -4.22183e-23)
(14.9751 23.9891 8.86975e-24)
(15.0787 19.5658 2.30677e-24)
(15.1812 16.0369 3.50816e-24)
(14.6479 13.0449 0)
(12.3199 9.6671 -8.90253e-24)
(4.19532 27.5802 1.35862e-24)
(6.89508 28.8785 2.41742e-24)
(7.14397 28.7047 0)
(7.93499 27.4723 -5.87388e-23)
(8.71707 26.0469 -3.04404e-23)
(8.98563 24.006 1.66292e-23)
(8.93108 21.5776 -4.43915e-23)
(9.18372 19.1683 4.06568e-24)
(9.43206 16.3812 3.07024e-23)
(9.47859 13.3208 0)
(9.00649 10.227 2.0298e-23)
(8.191 8.14528 -1.78008e-23)
(33.265 11.3094 -1.08984e-22)
(33.895 16.5651 -9.43476e-24)
(37.1964 18.0013 9.30281e-23)
(37.3749 18.95 -1.64684e-23)
(37.2266 18.5973 -9.33071e-24)
(35.1276 17.5099 -1.52292e-22)
(32.0883 15.6738 -1.13859e-22)
(27.2225 13.4902 -2.11843e-24)
(21.548 10.4544 0)
(16.8711 8.5309 -1.86366e-24)
(10.4048 5.67549 -4.56915e-24)
(9.8472 -4.41826 -1.01754e-24)
(35.9127 13.3822 0)
(33.8268 18.0796 0)
(35.0267 20.8458 -1.42557e-23)
(34.713 22.5269 0)
(34.7255 23.232 9.33351e-24)
(33.4312 23.4998 0)
(30.8093 24.3019 -1.19246e-24)
(27.2278 23.8632 1.3504e-23)
(22.7454 21.7025 -2.33347e-23)
(18.5536 19.0686 0)
(14.7219 11.4213 -1.43227e-23)
(13.2777 -5.7817 -2.05235e-26)
(37.4009 9.50796 0)
(36.4254 12.7753 4.65617e-23)
(36.8554 15.0595 3.69982e-23)
(35.527 18.5392 0)
(34.5335 21.393 0)
(33.5259 23.8994 5.43747e-24)
(30.9415 27.0676 1.33563e-23)
(28.232 28.9247 -1.12732e-23)
(24.3409 28.426 7.26771e-24)
(20.9623 26.0137 0)
(18.0213 16.9088 0)
(15.8554 -5.04518 5.48632e-31)
(35.9289 5.70218 0)
(34.4544 10.1168 0)
(33.527 13.6224 7.97249e-25)
(32.5384 17.017 0)
(32.9239 20.0979 0)
(32.544 23.6953 1.38316e-23)
(30.4487 28.4992 1.72344e-24)
(28.2125 32.3544 3.44224e-24)
(25.2152 33.4291 0)
(23.6971 32.4427 0)
(20.56 21.0708 1.38285e-24)
(20.6229 -1.41607 -1.73874e-24)
(33.1295 1.03002 -1.0116e-22)
(31.4334 3.58982 2.24362e-24)
(30.5023 7.26192 4.79264e-23)
(30.1586 11.0311 0)
(30.4219 14.9984 0)
(29.3765 20.3777 -6.65334e-24)
(27.9616 27.4551 -4.95587e-24)
(27.0261 33.2872 -4.59193e-24)
(25.2109 35.2886 -1.80337e-23)
(25.1262 35.5905 0)
(22.5338 23.847 1.68511e-24)
(25.9164 3.9754 5.22106e-24)
(29.0792 -0.619194 -6.98096e-23)
(27.0017 0.262646 -3.54699e-24)
(25.6298 2.81652 -1.12159e-22)
(25.2734 6.40024 0)
(24.8425 10.6659 0)
(24.018 16.1705 2.32623e-23)
(23.5381 22.7794 -5.20532e-23)
(23.4029 31.4261 2.95853e-23)
(23.5101 35.8746 -3.92723e-23)
(24.935 36.9001 0)
(23.4739 25.2144 -2.88895e-24)
(25.3426 10.5904 -9.57258e-25)
(25.5916 -1.30937 -5.79325e-23)
(23.5626 -2.23313 1.56082e-22)
(21.7832 -1.81938 6.63203e-23)
(21.1018 0.686265 0)
(19.7062 4.80453 5.36057e-23)
(18.1444 10.212 -6.41283e-23)
(17.5751 16.9346 7.58619e-23)
(17.3333 25.2053 5.37226e-23)
(20.5894 31.4645 -6.6219e-23)
(24.2581 36.3641 -4.24089e-24)
(25.6072 27.0469 6.00376e-24)
(24.2891 12.8897 1.52341e-24)
(22.6703 0.964494 -5.3206e-23)
(20.3578 -0.936304 1.095e-23)
(18.5492 -1.84593 -2.10759e-27)
(16.276 -1.24328 7.14281e-23)
(13.5454 2.07341 1.06737e-22)
(11.3139 7.31424 -1.08669e-22)
(11.3945 12.6877 1.60763e-22)
(11.8004 20.5035 1.14125e-22)
(16.7801 24.2505 -1.78511e-23)
(21.9567 31.7643 9.00998e-23)
(26.8218 27.9732 -1.58451e-23)
(25.0901 15.3094 -2.36147e-24)
(19.4502 2.28315 -1.344e-22)
(16.9105 -1.25989 0)
(14.64 -2.9315 -6.32585e-23)
(10.4054 -3.12887 6.39044e-23)
(7.54508 -1.7127 -2.32266e-23)
(5.79209 2.12661 2.9999e-23)
(7.01216 6.64362 1.35541e-22)
(7.30511 13.3848 6.57994e-23)
(15.0771 16.9551 0)
(18.7613 24.7144 -1.09122e-27)
(27.116 26.6023 2.38587e-29)
(25.729 16.441 -6.73745e-32)
(14.4264 4.40576 -2.56576e-23)
(11.9725 0.646819 6.13071e-23)
(9.14939 -1.05844 0)
(5.78347 -1.72992 4.78744e-23)
(4.43973 -1.14008 -1.44862e-23)
(2.53933 0.586313 2.8231e-23)
(2.52255 4.02093 1.46024e-22)
(3.83835 8.34092 1.22785e-22)
(12.1024 10.4966 8.65817e-23)
(14.0775 17.5783 -2.67416e-23)
(21.732 22.8217 5.84566e-23)
(25.1364 15.3513 0)
(10.4745 5.27236 7.37905e-24)
(9.41606 0.860764 0)
(6.71578 -1.75567 -5.45567e-23)
(4.33671 -2.74982 8.8449e-23)
(1.09789 -3.32379 1.44073e-23)
(-2.10655 -2.043 1.00536e-23)
(-2.04075 -0.818964 -5.67855e-28)
(-0.954556 0.682757 1.11163e-23)
(4.22427 3.11544 4.65218e-23)
(3.35324 11.489 0)
(14.3695 16.6287 -1.5278e-23)
(21.1987 10.1933 -4.15942e-24)
(6.81352 6.66322 -2.15049e-23)
(5.04672 3.47269 2.67218e-23)
(1.99621 0.302122 0)
(-1.58512 -0.674133 -4.83893e-29)
(-4.81951 -1.15795 6.46905e-24)
(-6.02313 -1.35118 -5.75406e-24)
(-6.45473 -0.748175 7.85173e-24)
(-6.00352 -0.107077 4.29665e-24)
(-4.59934 1.43912 3.31937e-23)
(-0.9587 4.48802 -2.08653e-23)
(13.0423 6.5134 -1.16537e-23)
(22.2843 -2.55083 -7.64767e-24)
(12.3121 1.55598 1.16689e-25)
(9.52275 0.27098 1.59423e-25)
(8.20781 -0.467296 4.44466e-25)
(6.5433 -1.94418 0)
(7.19148 -3.64637 -2.521e-25)
(7.99333 -5.07192 1.79291e-23)
(9.42321 -6.32262 3.47983e-23)
(10.4375 -7.40227 8.9049e-24)
(11.6725 -7.60496 4.61511e-24)
(12.5781 -8.64214 1.82295e-23)
(13.1598 -13.4059 3.46945e-24)
(10.1575 -27.1087 1.06681e-23)
(14.719 6.24122 2.66047e-24)
(10.5194 4.24312 5.28999e-24)
(9.51672 2.40403 0)
(7.36015 -1.57094 6.19944e-24)
(7.88554 -5.18069 -1.87443e-23)
(8.60371 -7.56612 -3.41688e-24)
(10.4278 -9.2921 0)
(12.844 -10.8281 -2.19853e-24)
(14.3373 -13.8022 0)
(14.0018 -21.3443 0)
(13.927 -33.0585 0)
(14.4285 -38.861 0)
(16.9356 9.50997 0)
(11.3222 7.57596 0)
(10.9798 3.35248 0)
(8.65945 -2.78631 1.45071e-23)
(8.29998 -8.16206 8.57076e-24)
(9.49773 -11.7567 8.91712e-24)
(10.4848 -15.2347 4.56895e-23)
(12.3041 -17.6544 0)
(14.1662 -21.4699 0)
(13.3417 -29.3765 1.23607e-23)
(11.3882 -36.8932 -9.30886e-24)
(10.4619 -41.5019 0)
(19.2802 13.3842 0)
(13.1297 10.2346 -4.12136e-24)
(14.0963 3.71171 0)
(11.2995 -3.53755 0)
(10.6483 -10.816 -8.90286e-24)
(10.0267 -15.5242 4.74224e-23)
(11.6197 -18.0674 5.61904e-23)
(12.028 -20.9188 0)
(12.647 -25.7256 0)
(10.7636 -31.7562 -2.43159e-24)
(7.18088 -37.3442 0)
(6.01387 -40.9207 0)
(21.3816 15.4591 -8.59329e-24)
(16.8977 11.4445 -8.12196e-24)
(19.2799 2.79577 0)
(16.9502 -5.0714 2.74849e-25)
(16.7653 -13.0032 4.5386e-24)
(14.3248 -18.3756 3.89922e-23)
(14.4964 -22.3129 -6.79494e-24)
(13.4972 -25.1368 0)
(13.2387 -27.923 0)
(10.4484 -31.0987 1.86414e-23)
(5.37227 -34.7017 1.66554e-24)
(0.414176 -36.5947 6.11886e-23)
(24.0028 14.7735 2.85089e-24)
(22.5733 8.33652 8.20576e-24)
(25.9863 -1.66091 0)
(23.1736 -8.86402 3.80095e-23)
(22.4581 -16.3924 -3.45227e-23)
(18.975 -20.8006 8.15224e-23)
(17.8978 -23.896 2.87294e-23)
(15.732 -25.5129 0)
(13.9584 -27.6524 0)
(11.0742 -29.426 2.24631e-23)
(6.86848 -30.6008 -3.61615e-23)
(0.790962 -30.4718 0)
(25.5882 11.2009 -5.1468e-24)
(25.524 5.05023 1.74732e-24)
(29.128 -2.25719 -4.53927e-24)
(26.984 -7.87064 4.27732e-23)
(25.6936 -15.0231 -3.84866e-23)
(21.5425 -19.3968 -6.33095e-23)
(19.1822 -23.0749 5.33483e-23)
(16.5548 -24.8621 -4.63255e-23)
(14.845 -26.4323 0)
(12.5678 -27.1267 -4.63133e-23)
(9.87264 -27.2466 -7.47794e-23)
(5.06228 -27.1915 3.05484e-25)
(27.3196 9.11603 4.64007e-24)
(27.9641 2.07928 4.67134e-23)
(31.1783 -5.29458 -4.26973e-23)
(29.3537 -9.73796 4.48906e-23)
(27.6857 -15.247 -1.26544e-23)
(23.4244 -18.4301 -1.03428e-22)
(20.9392 -22.076 1.07048e-22)
(18.3478 -23.9065 -2.65365e-23)
(16.7034 -26.0122 -5.11968e-23)
(14.7275 -27.0445 4.10746e-28)
(13.1799 -27.7167 -8.54654e-23)
(10.8462 -28.4841 -2.11121e-23)
(28.9886 4.67859 -1.07589e-23)
(31.4693 -1.69552 -1.23891e-28)
(34.5659 -6.23199 1.83639e-28)
(34.4471 -8.88638 0)
(32.5955 -13.6279 1.76086e-24)
(29.8096 -18.4204 -9.84345e-23)
(26.5536 -23.5395 -2.62987e-23)
(23.9631 -26.8607 -3.16637e-23)
(22.2923 -29.6498 -7.91667e-23)
(20.5025 -31.1643 6.2959e-23)
(18.8237 -31.9509 -3.94335e-23)
(17.0519 -31.2184 1.37185e-23)
(33.9904 0.85794 -2.05728e-23)
(35.8334 -5.31406 -1.71958e-23)
(38.0184 -9.80673 4.98661e-23)
(37.9895 -11.9357 2.83618e-24)
(37.5764 -16.8334 -1.23037e-22)
(35.6542 -21.5539 -1.28469e-22)
(32.6689 -25.9512 -2.62724e-23)
(28.5128 -28.7448 -1.17785e-23)
(25.5989 -30.6675 1.80706e-24)
(21.9903 -30.4137 0)
(18.6826 -28.9805 -3.27248e-23)
(14.6041 -23.113 -4.83629e-23)
(31.9974 -8.45305 -6.89009e-24)
(36.482 -7.59305 -2.27096e-24)
(38.2808 -9.73193 0)
(38.7187 -11.0132 -9.82524e-23)
(37.7836 -15.4338 -1.19162e-22)
(35.1763 -19.2582 -9.13197e-29)
(31.8242 -22.3571 -1.03527e-22)
(25.9418 -23.806 3.05818e-24)
(20.1992 -23.3768 4.84187e-24)
(15.2222 -20.4012 1.86305e-23)
(11.0819 -13.3645 0)
(7.87567 -5.21674 2.83201e-23)
(29.2897 -6.70359 -6.89188e-24)
(30.1857 -9.11863 9.25505e-25)
(29.7425 -10.7175 0)
(31.056 -11.5638 -7.27521e-23)
(31.5229 -14.5097 -5.02471e-23)
(28.3916 -16.4556 4.09481e-23)
(24.655 -16.7545 -1.08328e-22)
(19.2299 -15.0867 3.42453e-24)
(12.9077 -12.4854 4.42653e-23)
(7.66234 -7.08184 0)
(4.56859 -1.44607 -2.12939e-23)
(3.48477 2.29662 4.24652e-23)
(14.5432 -37.4114 -9.53883e-23)
(20.6942 -39.3965 -9.00119e-24)
(22.0029 -42.6433 3.98939e-23)
(23.5589 -42.7263 -1.1048e-23)
(23.4311 -40.795 -1.67678e-22)
(22.2504 -37.2268 -4.6766e-22)
(20.6838 -31.0886 -2.02881e-22)
(18.1926 -23.9706 6.15667e-24)
(16.1283 -15.1163 0)
(11.4683 -7.41188 -1.13934e-23)
(3.79904 -3.56986 -1.18552e-23)
(-6.28005 -8.12488 2.44206e-24)
(16.0637 -40.773 0)
(21.3947 -40.679 0)
(24.2954 -41.3515 2.87107e-24)
(27.4645 -40.5873 0)
(28.5631 -38.5358 -4.7695e-24)
(29.9451 -35.4648 0)
(30.5468 -31.4728 1.53901e-23)
(30.2816 -26.7164 3.40556e-23)
(28.8389 -21.8602 -5.68865e-23)
(21.8444 -18.4459 0)
(-3.50922 -13.3836 -1.69583e-24)
(-14.0509 -14.8181 9.13099e-24)
(11.6203 -43.2711 0)
(15.6265 -44.2508 7.43398e-23)
(19.3651 -43.7111 3.58357e-23)
(25.2285 -41.4988 0)
(29.5326 -37.3528 0)
(31.7822 -34.6759 -5.55152e-23)
(34.681 -30.7645 -1.34161e-23)
(34.9367 -28.2002 -1.17511e-23)
(34.7425 -25.009 -2.65062e-23)
(30.3908 -22.0746 0)
(10.063 -21.2748 0)
(-8.96545 -13.1137 -6.01496e-25)
(6.33755 -41.8051 0)
(10.271 -41.7278 0)
(15.8736 -38.5521 -3.16883e-23)
(22.5411 -34.1641 0)
(28.9399 -29.4864 0)
(32.6811 -27.918 -9.36449e-23)
(35.4318 -23.6628 -1.16893e-22)
(38.0929 -23.2884 5.04552e-24)
(39.1845 -20.439 0)
(35.1178 -18.2433 0)
(18.2523 -17.748 3.37984e-24)
(-9.1348 -14.5292 1.61407e-25)
(-0.721585 -36.0021 -1.62851e-22)
(1.08028 -33.2371 3.98671e-24)
(6.60966 -28.1535 8.32618e-23)
(13.9563 -23.3001 0)
(21.225 -19.144 0)
(27.6842 -19.6485 3.06424e-23)
(32.8559 -16.4482 -8.54887e-23)
(35.7994 -18.6803 -2.30039e-23)
(39.3185 -16.6064 1.68312e-23)
(38.4435 -16.3808 0)
(19.5017 -15.918 5.13262e-24)
(-11.9181 -18.0651 -1.86291e-24)
(-2.92592 -28.5641 -8.98709e-23)
(-2.44933 -24.9619 4.41279e-23)
(1.39127 -19.029 -1.97632e-22)
(8.40017 -14.7252 0)
(14.4047 -11.1086 0)
(21.9968 -12.6191 -3.6113e-23)
(27.9268 -11.3037 -1.59913e-22)
(32.5923 -16.1799 4.84299e-23)
(39.4361 -14.9323 -3.87647e-23)
(39.6015 -15.4684 0)
(19.4154 -15.8377 -2.79955e-24)
(-12.4486 -20.6242 1.61078e-24)
(0.135741 -25.8463 -2.14833e-23)
(-1.03464 -21.6586 2.39302e-22)
(1.13219 -15.2394 2.44924e-23)
(5.43718 -11.3415 0)
(10.6207 -8.58084 9.4059e-23)
(16.2346 -10.1953 -1.05484e-22)
(22.271 -10.9135 1.17689e-22)
(27.874 -16.3745 6.05358e-23)
(37.8784 -14.6288 -6.81298e-23)
(41.9852 -17.2161 3.53175e-23)
(19.1131 -19.1545 4.24759e-23)
(-15.725 -19.7918 -2.45193e-24)
(7.02393 -25.8974 1.09622e-23)
(4.80269 -21.0454 6.43915e-23)
(4.30796 -14.4741 -6.19833e-28)
(6.61695 -10.9673 6.46317e-23)
(9.16714 -9.42814 1.08734e-23)
(12.6136 -10.9127 -2.27315e-22)
(17.7047 -12.8622 1.26662e-22)
(23.4326 -18.1355 7.97981e-23)
(35.6113 -17.3409 -9.22539e-23)
(40.4283 -24.5415 1.27292e-22)
(20.5915 -29.1488 -6.56139e-23)
(-15.3867 -20.3731 -7.46752e-24)
(14.2842 -26.5776 -6.06667e-24)
(11.3896 -19.9681 0)
(8.97998 -13.4716 -2.01873e-23)
(6.81166 -10.7571 1.67283e-23)
(7.62312 -8.65219 3.7377e-23)
(8.79555 -9.63207 8.10286e-23)
(11.3744 -10.559 9.20225e-23)
(18.2855 -15.6897 7.26581e-23)
(28.5795 -16.3984 0)
(36.2691 -29.5237 3.58507e-28)
(25.5969 -36.9967 -1.93022e-29)
(-12.1118 -25.9903 -1.33929e-28)
(11.7835 -13.9827 5.02872e-23)
(10.6474 -8.04868 -6.43867e-24)
(8.72182 -5.28588 0)
(7.2153 -2.94163 -2.56006e-23)
(5.09858 -0.951636 6.75503e-24)
(4.59425 -0.884181 1.8269e-23)
(5.22009 -1.28293 3.47914e-23)
(7.09099 -5.12288 9.78223e-23)
(15.4428 -11.0864 6.14997e-23)
(23.6 -31.8645 -1.22837e-22)
(23.9073 -39.9817 1.40883e-22)
(-0.774455 -38.5117 1.58344e-23)
(5.4242 -0.0880228 -3.82408e-23)
(4.10394 1.85349 0)
(3.72905 3.0156 2.52212e-24)
(3.6535 3.22483 -3.47398e-23)
(3.65233 2.73077 -8.72157e-25)
(3.16411 2.55837 -7.52861e-24)
(2.42578 2.03694 -4.27678e-29)
(2.62442 1.1337 -2.84091e-24)
(3.32233 -1.33981 7.53183e-24)
(7.38842 -11.7017 0)
(20.1358 -20.406 -2.46294e-23)
(11.2823 -34.4901 6.25845e-24)
(2.88977 4.40235 -3.75729e-23)
(2.53891 5.36418 1.71478e-23)
(1.85631 5.99584 0)
(1.60778 5.82518 1.11878e-30)
(1.48346 5.66001 -1.35029e-24)
(1.61688 4.97179 -1.99776e-23)
(1.6871 4.32714 5.76001e-24)
(0.841352 3.44908 -1.17657e-24)
(-0.0435044 1.84567 -1.35351e-24)
(-0.65765 -0.407857 -2.98883e-24)
(1.90703 -5.54638 -1.0583e-23)
(-3.80746 -28.1191 6.12811e-24)
(6.76124 -11.0918 0)
(5.38033 -4.21802 6.96607e-24)
(5.35631 -0.223896 6.13191e-24)
(5.66151 4.51064 0)
(6.10373 8.04651 -5.97467e-24)
(6.38725 10.729 -9.68714e-23)
(6.53602 12.5517 -6.4048e-23)
(5.91139 13.106 3.44378e-23)
(4.89276 12.464 -9.96363e-24)
(2.77223 10.8901 1.00306e-22)
(0.388069 8.28431 -5.77727e-24)
(-2.22717 5.90026 -8.23283e-23)
(14.5907 -15.7499 9.77621e-24)
(12.6186 -8.3567 1.81033e-23)
(11.0875 -7.36685 0)
(10.0731 -3.38406 7.37654e-23)
(8.78316 -1.34715 2.99485e-23)
(6.82842 1.12069 -1.82959e-23)
(4.89867 3.24779 0)
(2.48921 5.30602 1.74653e-23)
(-0.278077 6.94257 0)
(-2.76113 7.83251 0)
(-4.94043 6.61768 0)
(-6.5254 5.33301 0)
(16.7743 -19.4712 -5.82139e-29)
(14.8681 -12.995 0)
(11.3879 -15.2875 0)
(9.61317 -12.2738 -3.76105e-23)
(5.85099 -12.2119 6.11817e-24)
(3.38194 -9.65757 -3.60361e-23)
(0.497273 -8.53233 -1.9214e-23)
(-2.86308 -5.57736 0)
(-6.46755 -3.51466 0)
(-10.4554 0.154868 1.17038e-22)
(-13.0591 1.87932 1.24736e-22)
(-14.7374 2.10151 0)
(16.4963 -20.8166 7.36649e-27)
(14.3885 -16.6733 2.4777e-26)
(10.4153 -19.3199 0)
(8.67541 -16.0901 0)
(5.09639 -15.9638 -2.75369e-24)
(2.51896 -12.8928 -4.63589e-23)
(-1.04417 -12.4106 -8.32938e-24)
(-5.69493 -10.658 0)
(-10.2117 -10.1045 0)
(-14.279 -7.72942 -1.55836e-23)
(-17.6895 -4.93606 0)
(-18.5511 -3.86809 0)
(15.7759 -22.3173 -6.70243e-24)
(13.5886 -18.3162 -7.06578e-24)
(11.1677 -20.645 0)
(10.395 -17.7747 4.16155e-23)
(7.14311 -15.6719 -2.47045e-23)
(4.70201 -11.6086 -7.37916e-23)
(-1.02087 -8.39469 5.79708e-23)
(-7.76764 -8.51574 0)
(-13.1814 -10.4293 0)
(-17.7414 -9.36932 9.45992e-23)
(-20.773 -8.83029 2.79425e-24)
(-21.15 -7.48181 -9.96395e-23)
(15.6415 -23.6008 7.1284e-24)
(14.1635 -19.8676 1.07643e-23)
(11.7257 -21.199 0)
(12.5962 -18.7277 -7.94507e-24)
(11.3005 -15.64 4.93355e-23)
(8.22836 -9.44326 -1.92164e-22)
(-1.0186 -6.02989 1.53347e-22)
(-11.8338 -4.00548 0)
(-17.2476 -8.72345 0)
(-20.8597 -10.3118 -1.07832e-22)
(-23.493 -11.1042 -1.60336e-22)
(-23.5635 -11.2545 0)
(15.1022 -25.0701 -1.73202e-23)
(13.7897 -23.4258 -1.81812e-23)
(12.1355 -24.5886 -3.10313e-23)
(15.3058 -22.4128 3.89046e-24)
(15.4376 -19.4981 5.80223e-23)
(9.90607 -12.7684 2.90889e-22)
(-5.57041 -7.47531 -3.54659e-22)
(-18.4717 -5.6573 1.42997e-22)
(-24.3811 -9.49874 0)
(-26.5794 -10.2103 1.34021e-22)
(-26.6177 -12.4141 -1.25666e-22)
(-24.88 -12.8374 -7.7029e-23)
(13.1996 -27.483 -1.39489e-23)
(12.4475 -28.237 7.01103e-23)
(12.6473 -30.368 -5.69852e-23)
(16.3225 -30.3899 1.86217e-22)
(16.9913 -30.2379 4.10025e-22)
(7.94745 -24.9433 2.11885e-22)
(-12.918 -17.4652 -1.96084e-22)
(-26.6896 -10.5623 2.80532e-22)
(-29.7395 -13.7895 -2.1592e-23)
(-28.5257 -12.2063 3.83438e-27)
(-26.8713 -14.1771 -2.4747e-22)
(-24.7375 -15.1433 -5.31081e-23)
(8.11697 -29.3175 6.96972e-24)
(8.43574 -32.9023 -2.77303e-28)
(8.19547 -38.2515 1.29695e-27)
(11.7827 -42.745 0)
(9.47849 -46.9071 2.08402e-22)
(-3.71571 -45.8122 5.66745e-23)
(-23.1175 -33.1727 -2.09115e-23)
(-32.4627 -24.7176 -1.99757e-22)
(-34.2116 -22.8901 -7.69519e-23)
(-31.274 -18.6177 1.04028e-22)
(-30.5276 -18.5566 -1.03007e-22)
(-31.0055 -18.6594 1.93488e-22)
(4.31402 -32.9894 2.20615e-23)
(2.98849 -36.6984 -1.68315e-23)
(3.32323 -41.8282 1.00858e-22)
(4.28863 -47.4779 1.05282e-22)
(2.8484 -56.6843 -1.13511e-22)
(-7.11913 -60.1387 -2.2133e-23)
(-24.4942 -49.2515 -2.87439e-23)
(-33.875 -37.1629 -1.24368e-22)
(-37.1492 -34.807 -1.14593e-22)
(-34.648 -28.4273 0)
(-35.6032 -25.712 6.05682e-23)
(-35.9171 -23.0043 2.95339e-22)
(-4.80357 -32.8461 1.3938e-23)
(-1.14862 -36.2085 -1.2649e-24)
(-1.39852 -39.5237 0)
(-1.32726 -47.6576 -2.06874e-22)
(-6.19857 -58.0611 -2.56545e-22)
(-15.22 -65.2453 1.432e-27)
(-25.6852 -61.4838 -1.61161e-22)
(-34.0673 -43.4018 1.34495e-22)
(-35.5316 -37.5102 9.46543e-24)
(-33.8615 -34.0414 -5.85184e-23)
(-35.0106 -28.5745 0)
(-35.4737 -25.0643 -2.93388e-22)
(-4.10304 -30.8245 9.65481e-24)
(-1.58355 -37.6927 3.27974e-24)
(-4.57077 -38.2375 0)
(-11.4777 -41.8511 -3.15391e-22)
(-13.3959 -55.2658 -7.53221e-23)
(-20.0516 -65.784 1.54649e-22)
(-24.3396 -69.0926 1.13386e-22)
(-27.8004 -55.0323 2.36103e-22)
(-30.211 -37.3946 3.4288e-22)
(-30.6647 -33.586 0)
(-30.8193 -28.9095 2.8391e-22)
(-33.0736 -26.3279 -5.26768e-22)
(-4.67156 2.70008 5.40025e-23)
(-5.62043 -0.121486 -1.75709e-24)
(-6.38549 -2.10781 -1.87488e-23)
(-7.18659 -2.91858 -3.8315e-24)
(-8.86934 -2.81024 4.13663e-24)
(-9.54264 -4.00782 1.22156e-23)
(-9.01903 -3.11795 -1.7641e-24)
(-11.2303 -0.279767 -1.66613e-24)
(-13.0123 -0.611301 0)
(-13.6358 -1.61085 1.39993e-24)
(-13.4185 -0.469033 1.70889e-24)
(-13.831 -0.0341794 -1.84171e-25)
(-7.66841 2.87911 0)
(-7.99093 0.0592187 0)
(-9.08674 -2.01624 -2.41763e-24)
(-11.3616 -2.64974 0)
(-12.2588 -2.90704 3.66636e-24)
(-12.1438 -4.73936 0)
(-13.0431 -4.13875 -4.91879e-24)
(-14.2243 -1.1779 -7.65737e-25)
(-14.2022 -0.775263 3.33679e-24)
(-15.0687 -1.83131 0)
(-15.5966 -2.1948 1.26305e-24)
(-13.7798 -1.52102 8.16297e-25)
(-14.8079 1.82811 0)
(-14.2949 0.809657 -5.74152e-23)
(-14.654 -0.586379 -3.58142e-23)
(-14.1336 -1.75288 0)
(-13.4696 -3.30825 0)
(-12.741 -3.96087 -1.36729e-23)
(-13.1566 -3.6705 -1.33006e-23)
(-13.3137 -1.38245 3.55461e-24)
(-13.5439 0.633793 7.55897e-26)
(-13.7715 0.27961 0)
(-14.9696 -2.6326 0)
(-15.1073 -0.157784 0)
(-17.4899 -3.76432 0)
(-16.4166 -3.37511 0)
(-15.6834 -3.12019 1.85685e-23)
(-15.154 -3.52946 0)
(-14.0215 -3.30465 0)
(-11.5639 -3.93655 -7.42514e-24)
(-10.382 -2.6745 -7.7007e-25)
(-10.2079 -1.00111 2.94948e-24)
(-11.3299 0.675661 0)
(-13.5937 1.28174 0)
(-14.7484 0.878915 -1.9221e-24)
(-21.2087 2.37487 0)
(-20.5562 -7.54849 2.79862e-23)
(-19.7985 -6.85817 3.18121e-24)
(-17.7763 -5.08512 -3.31484e-23)
(-14.551 -4.23509 0)
(-10.0198 -6.64742 0)
(-7.43395 -7.31506 1.15562e-23)
(-7.04365 -5.33191 2.18345e-23)
(-8.98537 -0.701689 2.23872e-23)
(-12.5945 4.12129 2.48703e-23)
(-15.2161 4.1491 0)
(-19.2631 6.7012 -3.62178e-25)
(-22.4892 -0.466641 -1.04986e-24)
(-22.2321 -10.7177 -6.29337e-23)
(-18.4828 -10.6455 1.92444e-23)
(-14.7438 -10.9884 -2.3448e-23)
(-13.2006 -10.6655 0)
(-14.3058 -9.37858 0)
(-14.6634 -8.91296 6.86217e-23)
(-15.1937 -5.32301 7.37934e-23)
(-12.804 1.92055 -1.15654e-23)
(-18.373 5.14591 1.2403e-23)
(-22.2789 6.89253 0)
(-21.2671 9.66828 3.08509e-24)
(-18.1824 -0.274462 4.78586e-24)
(-21.6121 -14.7632 4.54508e-23)
(-20.2233 -15.8542 1.67966e-22)
(-24.9433 -15.6411 8.24341e-23)
(-30.2878 -15.7305 0)
(-31.4675 -18.0164 2.26075e-23)
(-27.2746 -18.6438 -3.28108e-23)
(-25.4342 -18.8601 3.71383e-23)
(-18.6076 -2.60427 7.40968e-24)
(-20.7336 11.0904 2.04832e-24)
(-20.9277 5.58596 -4.6803e-24)
(-21.299 4.04607 -2.47476e-24)
(-17.5736 2.8016 -1.54344e-24)
(-24.5379 -16.1025 3.5858e-23)
(-30.4149 -16.0068 9.9537e-23)
(-35.3487 -15.7983 5.18191e-28)
(-36.4532 -17.3223 2.76722e-23)
(-32.7605 -20.0357 1.18084e-23)
(-32.4458 -23.1025 -3.14706e-23)
(-29.0767 -23.5524 1.07401e-22)
(-28.9552 -17.2143 -3.20262e-23)
(-15.9931 7.12248 1.51152e-24)
(-16.8758 7.83147 -1.68151e-23)
(-22.7353 5.52305 3.24461e-24)
(-20.4025 6.92561 2.04298e-24)
(-34.2008 -19.3248 -1.98733e-22)
(-37.6606 -19.2323 0)
(-38.8381 -18.4932 -4.43192e-23)
(-38.9565 -21.0682 2.33084e-23)
(-38.1113 -22.3562 4.56293e-24)
(-36.3302 -25.2187 -3.91218e-24)
(-31.4659 -28.5706 -1.55924e-23)
(-28.5093 -27.8119 -3.7291e-23)
(-19.7463 -7.73571 0)
(-20.0591 12.4152 1.48745e-28)
(-27.9858 8.26661 9.92948e-29)
(-24.8693 8.05012 -6.62496e-32)
(-36.4938 -21.4887 -2.43025e-22)
(-38.6534 -18.9467 -5.79398e-24)
(-40.1401 -17.4776 0)
(-39.8048 -18.3055 2.46181e-23)
(-38.6336 -22.45 -8.32332e-24)
(-36.0224 -29.3651 -6.48203e-24)
(-35.914 -32.9003 3.34051e-23)
(-37.8541 -34.2207 4.68169e-23)
(-38.9687 -19.3338 -9.09817e-23)
(-25.7577 12.4313 -5.09218e-23)
(-32.5696 9.35882 1.15117e-23)
(-26.5752 5.61699 1.64666e-24)
(-35.1977 -21.1019 2.47474e-22)
(-36.9105 -18.0742 0)
(-37.1039 -16.1757 -2.79536e-23)
(-33.1514 -16.3764 9.42199e-23)
(-31.0996 -17.1686 -1.71903e-23)
(-31.3062 -19.577 8.02697e-23)
(-37.9267 -27.3585 1.79965e-28)
(-43.1743 -35.0415 2.62768e-22)
(-51.6773 -30.3481 4.89275e-22)
(-44.1056 2.01497 0)
(-33.3899 7.81417 -4.27165e-24)
(-26.9474 5.37783 -1.96232e-24)
(-32.0395 -21.2723 4.04226e-22)
(-33.2043 -16.5897 -1.38422e-22)
(-29.3577 -13.8382 0)
(-26.4491 -14.1067 -1.5389e-28)
(-24.8026 -14.2766 -1.40979e-23)
(-24.0886 -15.1159 1.25012e-22)
(-25.9488 -15.0241 -6.26734e-23)
(-34.3048 -18.8349 2.62513e-22)
(-50.5611 -24.6168 6.67306e-22)
(-53.359 -17.1782 -7.93562e-23)
(-38.0598 -6.38209 -1.11786e-23)
(-31.3243 3.82779 -5.03004e-24)
(-13.5783 1.66081 -5.44014e-25)
(-13.0792 1.98725 -1.98602e-24)
(-13.0923 3.00745 -1.94186e-24)
(-12.6423 3.25966 0)
(-12.3093 4.08112 1.75692e-24)
(-11.829 4.86993 1.54586e-23)
(-11.7145 5.95535 3.00054e-23)
(-11.4714 6.4794 1.39229e-23)
(-11.4995 7.52211 4.89369e-24)
(-11.696 8.48492 2.14015e-23)
(-12.2013 9.53704 8.71761e-24)
(-11.4015 12.3334 -3.42632e-23)
(-15.3202 -0.189371 8.09066e-25)
(-14.796 0.467349 -1.32613e-24)
(-15.2871 1.72311 0)
(-14.802 2.43077 -5.83342e-24)
(-15.1424 4.04417 6.47135e-25)
(-14.7027 5.58177 4.65377e-24)
(-14.9994 7.11379 0)
(-14.8721 8.99558 -6.00763e-24)
(-14.5948 11.6989 0)
(-14.6383 14.2999 0)
(-14.998 18.4095 0)
(-14.8269 25.23 0)
(-16.635 1.63513 -7.88488e-31)
(-16.2508 2.13448 0)
(-16.2657 3.49204 0)
(-15.7252 4.25674 -1.89632e-24)
(-15.6848 6.10424 -2.61636e-24)
(-15.5929 7.57072 1.22755e-23)
(-15.532 10.0428 2.05297e-23)
(-16.0176 11.8787 0)
(-15.9384 14.7458 0)
(-14.4151 18.5109 2.07601e-23)
(-13.8097 24.2021 3.93636e-23)
(-13.3186 29.0181 0)
(-18.1331 0.305583 -7.60704e-25)
(-17.4796 0.834601 2.72585e-24)
(-17.6878 2.1853 0)
(-16.8951 3.30223 0)
(-16.5462 5.92466 1.6783e-24)
(-16.0347 8.31738 1.61799e-23)
(-16.153 11.2635 2.48603e-23)
(-16.2423 14.1379 0)
(-16.9937 17.4107 0)
(-15.2378 21.7991 -1.37541e-23)
(-12.6901 28.0883 0)
(-12.1864 30.2781 0)
(-20.0915 0.754733 1.4939e-24)
(-19.5416 1.84011 2.95289e-24)
(-19.3191 3.40616 0)
(-18.3002 4.36714 1.19788e-23)
(-17.3082 7.30008 6.75189e-26)
(-16.3071 9.8804 3.20909e-24)
(-16.2734 14.0539 2.03995e-24)
(-16.4606 17.347 0)
(-17.1701 20.4302 0)
(-15.9744 24.196 3.64253e-23)
(-12.6537 28.1126 1.9029e-24)
(-10.4969 29.7848 -2.41763e-23)
(-21.1954 1.23581 2.86955e-24)
(-21.4353 0.960219 1.35232e-24)
(-20.2672 1.83251 0)
(-19.5013 2.9374 4.57928e-24)
(-18.3553 6.29234 6.97468e-24)
(-17.1338 10.8766 -4.20531e-24)
(-17.0667 15.9372 3.24819e-23)
(-16.8648 19.5683 0)
(-17.5507 22.3581 0)
(-16.665 24.33 -3.03683e-24)
(-13.1279 26.9508 -4.83261e-23)
(-10.1231 27.7159 0)
(-22.2908 0.807342 -5.98097e-25)
(-22.8348 0.842932 5.51891e-24)
(-22.295 1.65164 -8.97051e-24)
(-21.7914 3.69459 1.40078e-23)
(-21.2146 8.07559 -3.11352e-25)
(-20.7179 13.8476 1.08968e-23)
(-20.2088 19.8799 2.68651e-24)
(-19.5972 23.3004 -1.93206e-23)
(-18.8636 24.5369 0)
(-17.9469 24.8551 1.91928e-23)
(-15.1211 25.5441 -6.09747e-23)
(-11.2675 25.6201 -1.47538e-23)
(-25.033 1.33725 5.33535e-25)
(-25.9045 1.67056 3.60449e-23)
(-27.317 2.79434 -3.69652e-23)
(-28.3976 5.74915 5.85366e-23)
(-28.832 12.3164 3.06912e-23)
(-28.1103 19.1112 -4.74628e-23)
(-25.7234 23.2411 6.84771e-23)
(-23.777 24.5095 -2.19289e-24)
(-22.2483 24.5779 -3.25093e-23)
(-20.2372 24.0522 4.83853e-28)
(-17.871 24.353 -8.19683e-23)
(-14.4606 23.8047 -4.86469e-24)
(-26.0789 2.93417 7.90178e-24)
(-28.7478 3.63104 2.9558e-31)
(-30.9189 5.95835 1.4682e-28)
(-34.0396 10.1552 0)
(-34.9656 16.0686 5.70473e-24)
(-34.1566 20.0462 -4.17218e-23)
(-30.2707 22.6439 -1.34893e-23)
(-25.9826 23.8925 -1.52989e-23)
(-23.0961 23.471 -2.39378e-23)
(-21.1744 22.8704 2.51536e-23)
(-19.1209 22.8906 -2.70273e-23)
(-17.0533 21.9871 4.93839e-23)
(-28.3667 4.74009 7.16169e-24)
(-29.5434 6.71116 -2.09835e-23)
(-29.8297 9.49655 3.39516e-23)
(-32.662 13.1454 -4.66362e-24)
(-32.9311 16.8439 -4.77833e-23)
(-32.5522 18.6275 -3.02555e-23)
(-30.4377 19.3399 -8.80984e-24)
(-26.9944 19.8238 -6.04708e-24)
(-23.5099 20.1863 -2.41741e-24)
(-20.9848 20.4252 0)
(-18.8877 20.6323 -2.39534e-24)
(-17.3057 19.1931 2.41912e-23)
(-28.5867 5.39556 1.7561e-24)
(-29.6965 5.10377 3.1734e-24)
(-28.0258 8.75538 0)
(-28.2933 12.1236 -4.8137e-23)
(-27.0367 14.2439 -2.81126e-23)
(-25.5386 15.097 -8.53967e-29)
(-23.3964 15.0996 -9.18644e-24)
(-20.7964 15.4601 8.46279e-24)
(-17.8445 15.495 5.56086e-25)
(-15.7532 15.4885 4.83342e-24)
(-14.1661 14.813 0)
(-13.0395 12.9318 -1.21854e-23)
(-27.5948 5.60736 5.46357e-24)
(-27.6126 6.52606 3.25662e-24)
(-25.0404 9.01884 0)
(-22.7798 11.7769 -5.95196e-23)
(-20.7408 12.2969 -1.24222e-23)
(-19.3875 11.181 -3.26548e-25)
(-18.0378 9.89867 1.59146e-23)
(-16.6635 9.6352 5.00396e-24)
(-14.5423 10.1812 1.14254e-23)
(-12.7257 10.94 0)
(-11.6587 10.7235 3.15402e-24)
(-11.2992 10.2249 -1.63546e-23)
(-8.84179 20.3339 2.89899e-23)