/*--------------------------------*- C++ -*----------------------------------*\
| =========                 |                                                 |
| \\      /  F ield         | OpenFOAM: The Open Source CFD Toolbox           |
|  \\    /   O peration     | Version:  2212                                  |
|   \\  /    A nd           | Website:  www.openfoam.com                      |
|    \\/     M anipulation  |                                                 |
\*---------------------------------------------------------------------------*/
FoamFile
{
    version     2.0;
    format      ascii;
    arch        "LSB;label=32;scalar=64";
    class       volVectorField;
    location    "1.5";
    object      U;
}
// * * * * * * * * * * * * * * * * * * * * * * * * * * * * * * * * * * * * * //

dimensions      [0 1 -1 0 0 0 0];

internalField   nonuniform List<vector> 
3312
(
(0.897936 13.4671 0)
(1.97642 13.215 -1.89388e-24)
(3.0559 13.5966 -2.08157e-24)
(3.57496 13.9629 0)
(5.02958 14.2301 2.44698e-24)
(9.33402 14.3223 6.86897e-24)
(14.0367 15.854 -3.50678e-25)
(14.7736 18.266 -1.03122e-23)
(14.4783 19.0002 6.17656e-24)
(14.3836 18.9243 5.69699e-24)
(14.3395 17.7687 6.62546e-24)
(14.663 16.1382 -1.28101e-23)
(0.506151 15.2336 -2.58958e-26)
(1.83212 15.1737 -1.34567e-24)
(3.94613 15.8028 0)
(5.83617 16.4776 -6.67926e-24)
(8.95575 17.8623 3.43938e-24)
(12.9085 18.5359 5.56007e-24)
(14.052 18.8753 0)
(12.9737 20.078 -5.95136e-24)
(12.1622 20.7773 0)
(12.6002 21.0339 0)
(13.3231 20.8124 0)
(13.4613 20.7679 0)
(1.46369 16.2982 0)
(3.2243 15.4597 0)
(5.85308 15.2252 0)
(8.69248 15.4382 2.12948e-24)
(11.8225 16.4796 -2.90363e-24)
(14.8696 17.3253 9.75554e-24)
(16.1328 17.8545 3.50933e-24)
(15.9545 19.544 0)
(15.9592 21.0689 0)
(16.9219 21.8834 -1.02108e-23)
(17.8591 22.5372 -1.88507e-25)
(18.0983 23.3417 0)
(-0.474479 17.7308 0)
(1.60048 15.9643 3.14091e-25)
(5.50866 14.9469 0)
(9.72612 14.2724 0)
(13.715 14.6695 7.90291e-25)
(16.618 15.7502 1.39429e-23)
(17.926 17.6334 5.07508e-24)
(17.9017 19.6373 0)
(17.8462 21.9847 0)
(18.8557 22.9968 -6.4492e-24)
(19.8804 23.8125 0)
(20.0484 25.0106 0)
(-1.95478 19.5546 -9.53356e-25)
(0.130839 17.248 -5.68346e-25)
(5.19598 16.5295 0)
(10.3085 14.8459 -6.62329e-24)
(15.432 14.1945 2.63624e-25)
(19.1389 14.3109 1.08224e-23)
(20.6845 15.7927 -5.04564e-24)
(20.6107 18.5773 0)
(20.5595 20.5984 0)
(20.8451 22.0095 -5.41659e-24)
(21.4049 22.6828 6.52463e-25)
(21.6007 23.5625 7.59283e-24)
(-3.06007 21.1358 1.13732e-24)
(-0.0649317 20.605 1.37022e-24)
(5.6872 19.964 0)
(11.0798 18.0847 4.1904e-24)
(16.9945 15.7348 -4.29113e-24)
(20.7644 14.7725 2.40462e-23)
(22.7106 14.49 3.94602e-24)
(22.2921 16.5454 0)
(20.9208 19.3976 0)
(20.8369 20.3968 -4.02023e-24)
(20.3376 20.725 -1.7219e-23)
(20.4006 21.2071 0)
(-2.7968 21.813 -1.28333e-24)
(0.316286 22.1465 -3.23677e-25)
(5.10724 20.8928 -4.47799e-25)
(9.81035 20.5291 5.54833e-24)
(15.8949 17.8391 -6.5596e-24)
(20.4607 15.5337 -1.96015e-23)
(22.6719 14.5873 2.34252e-23)
(22.174 13.559 -2.40585e-23)
(20.9392 15.7027 0)
(18.5556 17.8615 -4.26356e-24)
(17.2785 17.4577 -1.49735e-23)
(16.6823 16.7963 3.45854e-24)
(-4.30168 24.2566 3.72884e-24)
(0.497509 23.7466 1.16729e-23)
(5.87673 22.9754 -6.65651e-24)
(11.6865 22.4953 2.37427e-24)
(16.7789 20.757 -2.46855e-23)
(20.9421 17.6707 -4.19468e-23)
(22.0692 15.4177 6.01987e-23)
(20.6283 13.2706 -3.78465e-23)
(17.8722 11.1485 -3.1803e-23)
(14.8971 12.5583 -3.84507e-28)
(11.835 13.4484 -2.6757e-23)
(10.1656 13.0814 6.0332e-24)
(-3.62086 29.7762 9.12673e-24)
(0.989408 33.1591 -7.36939e-29)
(7.18061 32.1249 5.45012e-29)
(12.1983 30.4872 0)
(16.7685 27.7402 -1.42892e-23)
(20.1226 24.3293 -6.72199e-23)
(20.1881 19.6357 -1.78093e-23)
(17.8812 17.5075 -4.56916e-25)
(14.8593 12.4836 -4.00541e-23)
(11.6964 10.9087 2.43364e-23)
(7.81057 9.88221 -1.36306e-23)
(5.75392 9.43146 1.77804e-23)
(6.9281 30.2543 9.77504e-24)
(6.19316 34.362 -9.64003e-24)
(8.17685 36.263 3.34611e-23)
(14.1674 38.1197 -2.80485e-25)
(18.1276 35.007 -7.09904e-23)
(19.9682 30.487 -7.18004e-23)
(19.2107 23.9054 -1.27135e-23)
(14.4761 18.404 1.09897e-23)
(9.54637 12.9459 3.32256e-23)
(4.53273 8.18189 0)
(-0.105426 5.80812 -2.10195e-23)
(-2.86531 4.45065 1.18275e-24)
(3.83131 31.3345 6.07092e-24)
(4.76442 35.9485 -3.86755e-26)
(11.2885 35.9574 0)
(13.996 35.6047 -3.1804e-23)
(12.2203 30.1326 -3.58712e-23)
(9.5772 23.5954 -6.48069e-30)
(4.20028 14.7248 -1.92301e-23)
(-3.01002 7.0282 -5.7951e-24)
(-6.39813 2.11816 1.5778e-25)
(-8.99098 -1.06366 2.46561e-23)
(-10.5441 -2.38866 0)
(-10.721 -2.38949 1.00667e-24)
(16.3643 28.8277 8.90385e-25)
(12.432 29.8144 -1.38094e-24)
(8.26183 24.0455 0)
(3.98889 14.4533 3.69481e-24)
(-1.55468 5.27686 -1.89527e-24)
(-6.81609 -1.37226 1.04129e-24)
(-11.2626 -6.07931 -3.85256e-23)
(-13.0015 -6.57817 -7.24768e-24)
(-12.259 -6.71345 -5.64828e-24)
(-11.9561 -6.10638 0)
(-11.4451 -4.84846 -1.40131e-23)
(-10.0723 -3.41318 3.10348e-23)
(13.242 14.7794 1.21505e-23)
(11.6964 12.7344 -1.86913e-24)
(10.09 9.73012 -4.2373e-24)
(7.42445 8.45178 -7.5464e-26)
(4.38946 5.77166 2.96889e-23)
(0.66211 4.29758 1.01167e-22)
(-1.42872 0.800119 5.19184e-23)
(-1.36959 -1.29848 3.96058e-24)
(0.896708 -2.34281 0)
(3.82606 -4.20442 -2.38772e-24)
(8.08279 -2.26285 -1.84513e-24)
(11.9599 -2.19055 -3.05335e-26)
(12.4032 20.1411 0)
(12.0051 19.435 0)
(9.64678 17.3793 2.37305e-24)
(7.7617 15.8713 0)
(3.3672 14.3383 -7.05675e-24)
(0.149653 11.6163 0)
(-0.469258 4.96803 1.85673e-23)
(0.118824 -1.0561 2.38407e-23)
(2.79756 -5.45592 3.66102e-24)
(4.99262 -7.18153 0)
(8.91003 -11.1892 4.09374e-24)
(12.0938 -9.03259 4.16976e-24)
(17.419 24.3378 0)
(16.5718 25.1943 1.58656e-23)
(14.8173 25.0028 2.80217e-23)
(12.4319 25.4306 0)
(8.3348 24.4786 0)
(7.92447 20.9747 1.20793e-22)
(5.09679 10.6338 5.18807e-23)
(7.67178 1.97103 -1.62568e-23)
(8.93266 -6.02352 -3.78102e-23)
(10.3134 -10.5737 0)
(12.6759 -13.356 0)
(14.4017 -15.592 -3.35727e-29)
(19.9669 26.5112 0)
(19.9805 28.304 0)
(19.6527 29.8853 8.55289e-25)
(19.0268 31.8289 0)
(17.7109 32.4837 0)
(16.4347 31.9651 8.5722e-23)
(14.9093 19.8815 5.65803e-23)
(13.6213 4.66003 1.31441e-24)
(15.2545 -3.14924 0)
(14.8906 -8.89718 0)
(16.1969 -16.9924 3.30721e-26)
(17.1384 -16.9434 4.7755e-25)
(21.8681 25.1056 -1.92305e-23)
(22.3813 27.1531 3.75393e-25)
(22.8401 29.3971 2.50838e-23)
(22.8738 32.8024 0)
(22.2258 35.8223 0)
(21.1171 37.1141 1.7408e-23)
(21.5409 34.3298 1.41054e-23)
(15.641 12.721 -1.01409e-23)
(17.6749 -1.39899 1.82408e-23)
(16.8463 -7.23116 0)
(18.4676 -15.7364 -8.58229e-24)
(18.2118 -18.5882 -6.80729e-24)
(20.622 21.8147 -1.36625e-23)
(21.5006 23.6874 -4.96391e-24)
(22.8076 26.3551 -3.89384e-23)
(23.9668 30.523 0)
(24.325 35.4343 0)
(24.1402 38.3532 4.98085e-23)
(23.9136 39.3819 1.35213e-23)
(24.8548 27.0288 2.66522e-23)
(20.8466 3.16423 -2.26859e-23)
(21.7265 -4.92993 0)
(22.0222 -17.1036 6.68186e-24)
(21.4361 -18.8039 2.43807e-24)
(16.0122 15.8704 -7.19805e-24)
(16.8915 16.2218 3.35439e-23)
(19.0079 18.5434 3.17501e-23)
(20.8264 23.7387 0)
(23.5788 31.6551 2.24697e-23)
(24.9097 37.9044 -4.48315e-23)
(26.3284 39.7279 8.51158e-23)
(31.3454 33.4009 5.80193e-23)
(27.9544 11.0419 -6.65421e-23)
(28.7194 -1.70909 -5.45139e-24)
(25.9835 -14.3455 -3.83905e-23)
(23.0637 -16.6556 -4.49101e-24)
(9.45822 11.5965 -6.59385e-24)
(9.39699 8.42417 2.11288e-24)
(9.66598 7.12051 -8.18424e-28)
(10.3259 8.90284 2.82617e-23)
(12.5644 16.1024 3.22711e-23)
(17.3263 27.3102 -1.22012e-22)
(24.2352 35.1209 1.765e-22)
(31.1949 35.1533 4.62564e-23)
(32.7784 17.5495 -4.832e-23)
(29.4106 2.58035 5.16389e-23)
(27.7565 -9.94331 -3.97027e-23)
(23.9019 -14.5537 2.05183e-24)
(3.53539 8.92434 -1.70834e-23)
(2.25175 7.74645 0)
(1.88101 4.86247 -2.21621e-23)
(1.78147 3.46116 3.15701e-23)
(2.42239 4.06375 7.60629e-24)
(3.83496 9.08969 6.66223e-23)
(8.17468 15.8786 1.11007e-22)
(18.1686 24.8846 3.20686e-23)
(29.2422 21.0004 0)
(23.7958 7.79145 1.76625e-29)
(26.7632 -6.96899 -1.63972e-29)
(24.0247 -12.6898 7.16258e-33)
(-4.22695 3.21417 -5.60368e-24)
(-3.73996 2.73399 2.14899e-24)
(-2.44893 1.26399 0)
(-2.19624 1.40933 2.05569e-23)
(-2.55853 2.6475 2.34006e-23)
(-2.8664 6.56896 4.54146e-23)
(1.10032 8.39925 8.69492e-23)
(5.83663 8.53525 3.75556e-23)
(18.7676 13.0096 1.81201e-23)
(20.6078 7.85589 -4.80854e-24)
(25.9879 -8.79292 2.44501e-24)
(24.3018 -15.2766 0)
(-10.3105 -2.09186 -9.29502e-24)
(-9.55825 -1.72004 0)
(-8.38497 -2.32323 -2.97867e-24)
(-7.34417 -2.31177 -8.50723e-24)
(-5.95525 -1.65552 -3.16503e-23)
(-4.36186 0.568077 7.73446e-24)
(0.283192 3.73401 -4.49366e-28)
(2.85675 2.71434 -1.54325e-23)
(8.58405 2.97869 -2.22092e-23)
(13.3851 3.1257 0)
(20.2111 -8.38299 9.40126e-25)
(20.5049 -16.106 2.94631e-25)
(-8.55335 -2.16341 -3.30446e-23)
(-6.42461 -1.1857 1.16751e-23)
(-3.86193 -1.86243 0)
(-3.07692 -1.90196 7.17753e-29)
(-2.80262 -1.44726 -1.62942e-23)
(-2.68038 -0.973933 -4.72639e-23)
(-1.3767 1.16695 2.57684e-23)
(0.665905 1.24177 1.16888e-23)
(4.78282 0.799756 -7.48409e-23)
(12.4143 -1.94832 2.94532e-23)
(19.3032 -14.1983 1.25615e-24)
(19.8846 -30.3634 1.40732e-23)
(13.0953 -0.734835 1.85728e-25)
(11.9849 -0.925607 -1.22283e-24)
(10.8341 -0.560285 -9.38455e-25)
(9.19222 -0.0367683 0)
(7.15307 -0.538516 1.86183e-25)
(6.75784 0.456904 -1.47404e-23)
(7.75233 -0.423236 -2.01249e-23)
(6.54455 -8.50081 -7.08458e-24)
(8.22887 -16.3315 5.71049e-24)
(12.0637 -19.2052 -3.31838e-23)
(15.8082 -22.9229 9.8127e-24)
(17.8994 -25.4217 7.03291e-23)
(14.9823 2.39909 7.16204e-25)
(13.6124 2.29127 3.95799e-25)
(13.2473 1.93786 0)
(12.1866 1.74823 9.10895e-24)
(13.1038 -0.622579 1.07475e-23)
(12.4117 -8.17426 5.55177e-24)
(16.7184 -17.0697 0)
(17.8788 -21.097 -5.91106e-24)
(20.9575 -25.3049 0)
(21.1901 -27.7562 0)
(24.0114 -31.6329 0)
(24.9602 -33.22 0)
(16.5286 1.54917 0)
(16.304 1.62701 0)
(16.2508 0.93358 0)
(16.0959 -1.80285 -1.74369e-23)
(16.6281 -9.34589 -9.47939e-24)
(17.4873 -18.1764 2.28512e-23)
(18.7986 -24.6037 -2.57886e-24)
(18.7796 -28.9607 0)
(20.1916 -33.3841 0)
(20.9846 -37.3689 -4.37476e-23)
(23.3422 -39.3912 -3.5846e-23)
(25.1018 -39.3462 0)
(18.1754 2.23282 0)
(18.3353 1.8583 3.39529e-24)
(18.563 0.0578608 0)
(19.189 -4.22416 0)
(18.2709 -12.5623 1.18671e-23)
(17.4536 -21.8052 2.5661e-23)
(18.3034 -27.1019 -3.58435e-24)
(17.7348 -30.7633 0)
(18.608 -35.5165 0)
(19.2446 -38.6216 -8.40909e-24)
(21.617 -39.517 0)
(24.0625 -39.063 0)
(19.3611 1.27427 -2.11246e-24)
(19.463 0.665526 2.76806e-24)
(18.857 -1.73791 0)
(19.6625 -6.03991 1.23675e-23)
(16.9655 -14.0221 1.52638e-23)
(15.3315 -23.7132 1.72197e-23)
(14.8961 -28.3511 -1.62979e-23)
(14.2805 -32.0094 0)
(14.303 -37.2509 0)
(14.8623 -39.5444 -6.67115e-23)
(17.328 -40.0702 -6.91439e-25)
(20.043 -38.5871 5.41313e-23)
(21.252 2.4132 -1.05236e-24)
(21.1778 1.45495 5.12137e-25)
(20.1546 -2.02808 0)
(19.851 -6.05674 1.18989e-23)
(17.1053 -13.7939 -1.14283e-23)
(12.5452 -23.9025 1.46591e-23)
(12.281 -28.134 -2.35043e-23)
(10.3952 -32.2525 0)
(9.28221 -36.528 0)
(8.72547 -37.5935 -7.82065e-23)
(10.6434 -36.4195 -9.56717e-23)
(14.0336 -33.3086 0)
(22.8847 1.33045 -5.61754e-25)
(21.9856 1.14858 3.0402e-24)
(20.5674 -1.88691 -1.24883e-25)
(18.6546 -5.54194 7.78758e-24)
(17.9261 -12.2138 -6.58472e-24)
(11.2404 -22.3869 -2.23546e-23)
(9.15939 -27.636 2.71517e-23)
(7.52124 -29.9096 -3.71083e-23)
(4.70573 -32.6838 0)
(2.74077 -31.9186 3.71927e-23)
(3.03628 -29.7397 1.03218e-22)
(5.17913 -25.7565 7.57945e-23)
(24.5745 2.9434 7.48325e-25)
(22.4029 3.20167 1.20272e-23)
(21.8426 -0.0887948 -1.47276e-24)
(16.8426 -5.3696 -3.98335e-24)
(17.1685 -11.8372 -1.44231e-23)
(11.6242 -20.0879 -2.62057e-23)
(7.37331 -25.9007 3.59184e-23)
(5.44345 -27.669 -5.3798e-23)
(2.06591 -28.4677 -5.40323e-23)
(-0.953039 -26.8719 -2.04184e-27)
(-2.67842 -23.0576 -6.59764e-23)
(-1.54542 -16.6631 7.26904e-23)
(25.308 2.86384 -2.57487e-24)
(23.5399 3.38618 -9.38134e-29)
(23.1929 1.63128 2.08234e-28)
(18.2397 -3.07163 0)
(18.0318 -11.5937 -1.36152e-23)
(13.6877 -18.3324 -3.24785e-23)
(8.26108 -24.3813 -2.03805e-23)
(6.20732 -25.0327 -7.9264e-24)
(2.43682 -24.3973 -6.16866e-23)
(-0.560462 -20.7469 7.4507e-23)
(-2.99584 -15.8103 -7.79725e-23)
(-3.30848 -9.79921 1.6794e-22)
(27.7662 6.09124 -1.04339e-23)
(33.1317 4.40764 -3.50097e-24)
(36.922 1.29043 3.10599e-23)
(31.2447 -6.61065 -2.57934e-24)
(22.2037 -13.7051 -5.86585e-23)
(18.261 -17.5902 -7.96258e-23)
(11.1466 -24.1212 -3.96143e-23)
(8.35873 -23.4969 -8.65199e-24)
(4.08282 -21.2186 1.71685e-23)
(1.75474 -17.8376 0)
(-2.21966 -12.3958 -6.61033e-23)
(-2.96632 -5.39336 8.01808e-23)
(31.9927 -3.63307 -3.12213e-24)
(39.8248 -7.16771 -2.26506e-24)
(44.3048 -3.76129 0)
(45.5373 -1.24576 -3.30854e-23)
(30.8788 -7.23951 -8.79261e-23)
(29.0005 -17.7014 -2.92596e-28)
(16.1032 -21.3032 -9.1132e-23)
(13.4827 -20.9016 8.5202e-24)
(7.1314 -18.6836 4.16021e-24)
(5.13527 -13.3362 3.98533e-23)
(2.35352 -7.42827 0)
(0.725578 -2.64621 -8.4148e-23)
(36.4283 -3.97368 -4.9436e-24)
(42.9161 -5.11178 -5.78024e-24)
(48.0437 -1.21037 0)
(51.1232 1.20529 -2.57246e-22)
(45.0606 -11.1306 -1.45747e-22)
(33.446 -16.2909 5.37043e-23)
(23.3699 -18.7779 -2.51374e-22)
(17.3346 -19.4464 -9.32894e-24)
(11.7464 -15.5654 1.09022e-22)
(8.049 -11.5418 0)
(4.91029 -7.22773 8.2212e-23)
(1.54776 1.79057 -7.63702e-23)
(19.8769 -28.3811 -6.4405e-23)
(19.9493 -29.4686 -8.47641e-24)
(19.5743 -30.9708 -3.28485e-25)
(18.0855 -30.6723 -1.15065e-23)
(16.2903 -30.5296 -2.8303e-23)
(14.3715 -28.7447 -9.85008e-23)
(12.0113 -26.9096 -6.5419e-23)
(10.3319 -23.6812 -2.94906e-24)
(7.94306 -20.2161 0)
(4.92362 -16.2771 1.48134e-24)
(3.82471 -14.126 2.17781e-25)
(-2.42352 -10.0242 -1.97481e-25)
(26.3628 -34.6099 0)
(26.6245 -34.9363 0)
(26.3371 -35.0354 -1.98228e-23)
(25.1171 -33.8706 0)
(23.4439 -32.815 1.00493e-23)
(21.6875 -30.5506 0)
(19.9525 -28.4081 -7.53064e-24)
(18.6397 -25.5235 -1.04248e-24)
(16.9209 -22.3331 3.51489e-24)
(13.6366 -19.2251 0)
(10.8496 -16.5624 -1.93166e-24)
(-1.03096 -14.4942 1.35686e-25)
(27.0719 -39.2587 0)
(27.9471 -37.6326 4.90471e-25)
(28.6141 -36.4619 -1.32252e-23)
(28.2843 -34.2964 0)
(27.2504 -32.7187 0)
(25.7306 -30.3925 -3.17105e-23)
(23.8953 -28.7792 -1.62084e-23)
(23.2688 -26.6636 3.42211e-24)
(21.4645 -24.6631 7.31553e-24)
(18.6057 -23.651 0)
(13.123 -20.5425 0)
(1.88808 -20.849 -4.17204e-25)
(26.7944 -38.0296 0)
(28.5667 -35.9472 0)
(29.6943 -34.7097 -5.85752e-24)
(30.1457 -32.4245 0)
(29.745 -31.2921 0)
(28.5551 -29.4469 -3.71573e-23)
(26.5544 -28.5118 -2.84223e-23)
(25.607 -27.2589 -5.98272e-24)
(23.8058 -26.0879 0)
(21.9231 -26.0859 0)
(16.9971 -23.0138 -4.04566e-24)
(11.8629 -24.2208 3.86766e-25)
(23.5227 -36.2497 2.08188e-23)
(26.1114 -33.0399 -2.27604e-24)
(27.9637 -30.6122 -3.21173e-23)
(29.1195 -27.8657 0)
(29.4294 -26.7077 0)
(29.2118 -25.5023 9.25662e-24)
(27.5965 -25.6109 -2.40198e-23)
(27.0022 -25.3818 -1.6793e-23)
(24.981 -25.5296 -1.42609e-23)
(23.9141 -24.994 0)
(18.7389 -23.4304 -7.86758e-25)
(17.2424 -23.8357 1.56986e-24)
(18.2491 -29.578 2.15482e-23)
(21.6745 -24.9324 -3.74346e-26)
(24.2288 -22.1037 5.45503e-23)
(25.7726 -19.8731 0)
(26.2068 -19.3714 0)
(26.3029 -19.3762 -3.31156e-23)
(24.9106 -21.0949 -4.56067e-23)
(25.0662 -22.4649 1.85898e-23)
(24.7976 -24.0615 -1.81937e-23)
(24.7881 -24.3081 0)
(19.6742 -23.5183 -1.59676e-24)
(21.3974 -24.2307 -1.37852e-24)
(9.55385 -20.0181 -2.91204e-23)
(14.2739 -14.8105 4.69619e-23)
(17.3164 -12.3695 -5.36631e-23)
(20.0141 -10.3741 0)
(21.2351 -11.206 2.50547e-23)
(22.026 -12.35 -2.89753e-23)
(21.2189 -16.0753 2.75668e-23)
(21.506 -18.2437 1.93603e-23)
(22.3735 -21.534 -2.1462e-23)
(24.7991 -22.1286 -6.261e-25)
(19.9451 -23.639 -5.58583e-24)
(22.9401 -22.9092 2.65671e-25)
(1.63736 -10.1215 -3.88667e-23)
(6.01909 -4.71178 7.27305e-23)
(9.92923 -2.61037 1.36828e-27)
(12.9604 -1.42657 3.33262e-23)
(14.882 -4.41925 -3.39966e-23)
(15.7055 -7.0738 -1.23071e-22)
(16.0389 -13.3329 3.25394e-23)
(16.9629 -15.679 2.87525e-23)
(18.6625 -20.0048 -9.36699e-24)
(22.0044 -21.2626 2.56207e-23)
(19.3452 -24.157 -2.16576e-23)
(22.1947 -22.4337 -4.34023e-24)
(-1.65185 -3.32019 -1.56102e-22)
(1.48099 1.65624 0)
(4.5432 3.30658 -4.02294e-23)
(6.94183 2.80309 2.30298e-23)
(8.43876 -0.907151 5.94174e-23)
(9.19998 -3.91277 5.06882e-23)
(9.56103 -9.91818 3.11423e-23)
(12.1796 -10.9094 1.55921e-23)
(14.8365 -17.0031 0)
(20.5442 -19.7852 -2.03236e-28)
(19.7249 -24.452 2.69787e-29)
(20.6015 -23.2082 1.77746e-30)
(-2.32901 0.770303 -6.29626e-23)
(-0.623787 4.99042 2.09221e-23)
(0.578414 6.6838 0)
(1.82688 6.6968 4.53127e-23)
(2.91351 4.664 4.85081e-23)
(2.83424 2.52171 4.77021e-23)
(4.24013 -1.32331 4.43065e-23)
(5.7797 -4.86503 3.30879e-23)
(7.26302 -15.381 2.84409e-23)
(12.6029 -17.3197 -3.32928e-24)
(15.2713 -24.3456 2.50111e-23)
(17.6645 -24.0493 4.71107e-24)
(-0.539111 2.97902 6.84779e-23)
(-0.560389 8.11168 0)
(-1.07743 11.0391 -3.65592e-24)
(-1.50761 11.1339 -5.8248e-23)
(-1.91084 10.2005 -3.20804e-23)
(-2.41793 8.82156 -3.90882e-23)
(-4.08375 4.78663 -3.24677e-28)
(-4.49244 1.12623 -1.27558e-23)
(0.415316 -4.55821 4.37762e-23)
(10.747 -5.00396 0)
(14.7618 -16.6698 -8.0556e-24)
(16.2821 -23.7077 8.39467e-24)
(-1.27212 9.72289 2.68257e-23)
(-1.32877 13.9944 1.95796e-23)
(-2.27059 14.7404 0)
(-2.65324 14.1671 -1.02874e-28)
(-3.10273 13.6205 7.67148e-24)
(-4.21753 12.1419 -7.91974e-23)
(-5.53768 12.6561 5.4055e-23)
(-8.68354 14.8667 -1.00633e-23)
(-9.35944 13.604 -1.89565e-23)
(-6.90799 8.86387 -7.84889e-24)
(-5.26871 -6.6861 -1.11272e-23)
(-0.138329 -18.3445 4.90055e-24)
(3.76077 -11.4298 0)
(2.2889 -7.91583 1.43527e-24)
(1.98493 -5.05537 1.42591e-24)
(1.37715 -2.11769 0)
(0.777468 -1.05201 -2.05269e-24)
(-0.840168 -0.719779 1.6062e-23)
(-2.55002 -2.06717 5.55968e-23)
(-3.49427 -4.52012 2.78818e-23)
(-4.90037 -4.63022 -3.96017e-25)
(-9.08056 -6.79948 4.58981e-23)
(-16.1507 -8.34111 -5.30352e-24)
(-38.1461 -6.37383 7.14386e-23)
(8.88475 -14.8909 3.24188e-24)
(7.11331 -9.72461 6.33549e-24)
(6.40704 -7.92208 0)
(3.64581 -4.68046 2.40761e-23)
(-0.586532 -2.65185 -1.2689e-23)
(-4.63379 -2.66707 -1.14005e-23)
(-9.41375 -4.84574 0)
(-10.3419 -7.63891 7.26784e-24)
(-14.2192 -10.5776 0)
(-26.9087 -9.85012 0)
(-42.163 -11.2484 0)
(-44.5924 -11.45 0)
(12.4922 -17.4016 -2.74646e-29)
(12.1005 -11.2423 0)
(9.06948 -10.855 0)
(5.77301 -6.81735 -5.67238e-24)
(-0.897466 -5.53851 1.25139e-23)
(-10.836 -3.78241 -5.01992e-24)
(-15.072 -4.94261 4.40943e-23)
(-16.9571 -6.3453 0)
(-27.5312 -8.45794 0)
(-40.6535 -7.8158 2.89179e-23)
(-44.8619 -8.03422 -1.51044e-24)
(-44.8317 -8.0047 0)
(15.6047 -19.7929 1.42819e-26)
(14.4998 -14.3869 -1.32262e-24)
(11.1088 -15.4297 0)
(5.38439 -12.0107 0)
(-6.03112 -11.0547 -6.72766e-24)
(-14.3523 -9.25447 3.39285e-23)
(-19.0235 -9.33719 5.03559e-23)
(-27.0424 -9.83787 0)
(-38.1713 -9.67151 0)
(-43.8974 -8.26406 -8.02572e-25)
(-44.7935 -7.60377 0)
(-43.9645 -8.11574 0)
(15.5964 -21.9232 -4.81279e-24)
(15.3382 -18.3184 -4.76921e-24)
(9.47557 -20.6682 0)
(3.10871 -17.8757 3.20499e-23)
(-8.82416 -16.9102 1.16377e-23)
(-18.9062 -14.4529 3.64983e-23)
(-27.2232 -14.1297 -1.59055e-23)
(-34.8511 -13.1349 0)
(-41.0243 -11.1315 0)
(-43.6636 -8.3102 1.17556e-23)
(-43.9743 -7.18619 1.12549e-24)
(-42.6129 -7.04061 1.9038e-23)
(14.8016 -23.2834 4.26294e-24)
(13.3276 -22.3285 6.30812e-24)
(8.23019 -25.3104 0)
(0.859358 -23.7172 3.23513e-23)
(-13.6075 -22.6611 -3.64383e-23)
(-23.6603 -20.1984 7.93263e-23)
(-30.7498 -18.5019 1.36844e-23)
(-35.9149 -15.422 0)
(-40.3134 -11.8547 0)
(-42.3136 -8.90412 5.09889e-23)
(-42.0173 -7.3816 -2.52044e-23)
(-40.0006 -7.00164 0)
(12.2781 -25.4939 -9.10287e-24)
(10.8298 -24.5989 -1.97202e-24)
(4.83063 -28.3006 -7.04181e-24)
(-2.32755 -26.8782 3.90479e-23)
(-16.148 -25.8348 -4.43559e-23)
(-24.6806 -22.9497 -9.03132e-23)
(-30.6203 -20.01 8.50741e-23)
(-34.869 -16.474 -7.92654e-23)
(-38.5517 -12.1664 0)
(-40.0516 -8.49749 -1.28912e-23)
(-38.9508 -6.30196 -1.03045e-22)
(-35.7817 -5.36433 3.96495e-23)
(10.2455 -26.9031 -6.80133e-24)
(8.52354 -28.0079 3.27233e-23)
(3.05016 -31.1522 -3.28022e-23)
(-3.41052 -29.0789 4.10388e-23)
(-17.7154 -27.2514 -2.33315e-23)
(-24.3263 -23.9084 -1.56871e-22)
(-29.6527 -20.7401 1.3989e-22)
(-33.0636 -16.858 -4.89195e-23)
(-35.3224 -12.2512 -6.81629e-23)
(-35.7352 -8.06669 -5.99983e-28)
(-33.2042 -5.32356 -7.20518e-23)
(-30.1991 -3.94089 4.71107e-23)
(5.901 -27.7783 1.37481e-24)
(4.23746 -30.699 -6.72884e-29)
(1.28051 -31.7619 7.52069e-29)
(-4.79037 -31.0452 0)
(-17.5652 -27.4252 -1.02388e-23)
(-23.0439 -24.0805 -9.34393e-23)
(-27.5556 -20.3656 -2.02656e-23)
(-29.5498 -16.5825 -1.90665e-23)
(-31.0885 -12.1973 -6.43699e-23)
(-30.8443 -7.36582 6.18465e-23)
(-28.4935 -4.25395 -5.7142e-23)
(-25.5966 -2.05254 1.06123e-22)
(5.05752 -30.9433 7.01257e-24)
(4.6181 -34.5687 -1.38006e-23)
(1.41163 -34.7969 3.21113e-23)
(-4.7377 -35.1687 -7.09224e-24)
(-16.6988 -28.8084 -9.60474e-23)
(-21.6111 -25.3598 -9.44117e-23)
(-25.5584 -20.7365 -2.03695e-23)
(-27.2347 -16.5222 -1.09382e-23)
(-27.5002 -12.1067 4.91845e-25)
(-26.0537 -7.04643 0)
(-23.4372 -4.0876 -4.1078e-23)
(-20.6625 -1.63131 4.90994e-23)
(-4.76548 -30.6031 -9.89161e-25)
(-2.6507 -35.2384 2.62722e-24)
(-2.35588 -33.5907 0)
(-5.36661 -34.6305 -5.55599e-23)
(-14.2491 -28.4726 -6.70883e-23)
(-18.6507 -23.6979 -7.81796e-29)
(-21.4722 -19.3107 -5.14018e-23)
(-22.2047 -15.3614 4.75953e-24)
(-21.4915 -11.8131 3.04596e-24)
(-20.6836 -7.14567 2.17643e-23)
(-18.6682 -3.28694 0)
(-15.5392 -0.284144 -9.73261e-23)
(0.634708 -30.0687 -7.89184e-24)
(5.5823 -38.1412 2.99318e-24)
(4.40602 -38.7977 0)
(-1.86143 -39.7203 -2.42358e-22)
(-11.0351 -32.6062 -9.60281e-23)
(-16.3077 -25.8787 3.8958e-23)
(-19.5176 -19.7855 -1.04379e-22)
(-20.4148 -15.0059 8.19427e-24)
(-19.1718 -10.4469 5.60999e-23)
(-17.2859 -6.11349 0)
(-13.7614 -2.86884 6.65829e-23)
(-10.8947 -0.602194 -1.55122e-22)
(-45.4706 -17.0208 -1.83685e-22)
(-48.6557 -20.6628 -1.46392e-23)
(-54.1018 -21.9619 9.64401e-23)
(-54.9658 -23.2061 -2.44921e-23)
(-56.1562 -22.0767 4.40687e-24)
(-55.3074 -20.9259 -1.90839e-22)
(-53.9941 -18.9748 -1.93521e-22)
(-51.5768 -17.4871 -5.37198e-24)
(-47.7004 -16.9551 0)
(-43.751 -17.4345 -7.33231e-24)
(-31.3502 -20.1688 -1.16336e-23)
(-26.3935 -23.0867 9.92079e-25)
(-42.3954 -17.4947 0)
(-39.2048 -21.6927 0)
(-38.313 -24.3778 -2.27377e-23)
(-36.2715 -25.3175 0)
(-35.8002 -24.7008 1.86968e-23)
(-35.1196 -22.7425 0)
(-33.3647 -21.11 -1.43273e-23)
(-31.4169 -18.5808 2.28965e-23)
(-28.1907 -17.3883 2.06738e-23)
(-26.8231 -18.2199 0)
(-19.8288 -25.1313 3.8343e-24)
(-20.1957 -34.9106 2.83527e-24)
(-42.007 -11.5468 0)
(-38.7432 -14.6732 2.46879e-23)
(-37.2663 -16.6293 8.34565e-24)
(-35.5579 -18.6216 0)
(-35.2392 -20.0813 0)
(-32.9564 -21.0581 -4.13408e-23)
(-30.0221 -21.7411 -2.30154e-23)
(-27.4837 -21.2937 -3.54403e-24)
(-23.26 -21.0389 -1.87478e-23)
(-21.6261 -21.9378 0)
(-15.5624 -26.5178 0)
(-19.4237 -37.5907 0)
(-40.4377 -11.7314 0)
(-36.1313 -15.976 0)
(-34.1868 -18.4049 3.54724e-24)
(-33.5899 -20.4568 0)
(-32.3256 -22.3469 0)
(-29.784 -24.3966 -2.56196e-23)
(-27.4284 -25.5403 -2.65043e-23)
(-25.3069 -25.5781 1.96132e-24)
(-22.1028 -25.3069 0)
(-21.1458 -26.3578 0)
(-15.5191 -27.9487 2.13764e-24)
(-19.6914 -35.8226 0)
(-38.2737 -10.0859 -2.45619e-23)
(-34.6432 -13.4744 -5.46656e-27)
(-34.2406 -15.6556 1.2305e-23)
(-33.1627 -17.7035 0)
(-30.2283 -21.1035 0)
(-27.1292 -23.7835 -1.94036e-24)
(-24.2207 -25.833 -1.50273e-23)
(-23.0086 -26.8782 -2.52413e-25)
(-20.6376 -27.0806 -3.69505e-24)
(-21.3633 -28.3578 0)
(-16.6232 -29.504 4.35028e-24)
(-20.8289 -34.6097 4.7685e-24)
(-35.5631 -9.11536 -1.83877e-23)
(-32.8933 -11.8333 3.05054e-23)
(-31.6883 -14.0989 1.49996e-23)
(-28.9194 -17.1856 0)
(-24.7989 -21.1574 0)
(-21.6631 -24.5794 -2.89651e-23)
(-19.273 -25.9586 -3.4976e-23)
(-19.5028 -26.938 9.30021e-24)
(-18.3557 -27.2648 -1.07977e-23)
(-20.8716 -29.095 0)
(-17.463 -30.4826 -5.38669e-24)
(-21.7403 -32.2816 -6.09296e-24)
(-31.7904 -6.5988 -4.07382e-23)
(-29.0939 -9.03013 -2.92026e-23)
(-27.2291 -11.3622 -1.56156e-23)
(-23.7553 -15.1162 0)
(-19.4459 -19.5227 1.22882e-23)
(-17.1997 -23.271 -2.12245e-23)
(-15.8982 -24.7495 3.15254e-23)
(-17.3368 -25.3532 1.92002e-23)
(-17.3429 -25.204 -2.24365e-23)
(-20.2538 -27.1868 2.77836e-24)
(-20.148 -30.3262 6.28004e-24)
(-23.0323 -29.777 5.9567e-24)
(-26.803 -4.24025 -4.76195e-23)
(-24.2837 -5.44473 -1.66939e-24)
(-21.1611 -7.58746 -7.4009e-28)
(-16.7425 -11.9142 2.7582e-23)
(-12.6277 -16.7721 -1.80703e-24)
(-11.6895 -20.6116 -1.36827e-22)
(-12.0439 -22.3526 5.74518e-23)
(-14.9976 -23.1803 3.38175e-23)
(-16.5331 -23.7858 -1.85566e-23)
(-20.4511 -24.2027 3.15531e-23)
(-21.6814 -28.9214 -3.90839e-23)
(-26.212 -28.9239 -4.74579e-24)
(-22.4202 -1.97985 -9.94176e-23)
(-17.9068 -2.69147 0)
(-14.2281 -4.95414 -3.95699e-23)
(-9.44435 -8.86769 3.97951e-23)
(-6.62911 -13.1913 3.29964e-23)
(-7.1124 -16.7736 5.15429e-23)
(-8.73491 -18.3721 6.27706e-23)
(-13.2099 -19.1316 2.04764e-23)
(-15.3475 -19.945 0)
(-21.8567 -21.1932 -1.23483e-28)
(-22.1111 -25.7673 -3.52361e-29)
(-27.4892 -28.6087 8.79121e-32)
(-16.6185 -1.24171 -4.29102e-23)
(-12.2953 -1.19112 3.9098e-23)
(-8.72698 -2.54488 0)
(-3.71981 -5.84974 9.14078e-23)
(-2.66988 -9.54191 3.36198e-23)
(-3.89374 -12.5638 4.42544e-23)
(-6.55876 -13.8571 7.67674e-23)
(-11.2386 -14.864 5.29146e-23)
(-14.2642 -15.0736 1.78619e-23)
(-21.228 -16.1794 -2.04711e-23)
(-21.0822 -23.2595 3.06597e-23)
(-27.5962 -26.0489 3.38516e-24)
(-11.1129 0.73953 9.75553e-23)
(-6.48473 0.677317 0)
(-1.56227 -0.541407 -2.44012e-23)
(1.18988 -3.55278 1.6074e-22)
(0.571967 -6.3389 -2.51984e-23)
(-1.71001 -9.19424 2.21901e-23)
(-4.98394 -10.232 -2.77136e-28)
(-9.50068 -11.0101 1.52244e-23)
(-11.9822 -10.9377 2.54736e-23)
(-16.2271 -13.3145 0)
(-15.3608 -19.9628 -5.82439e-24)
(-25.063 -23.3686 5.92106e-24)
(-6.74083 0.170331 1.3999e-22)
(-2.40589 0.210712 -6.28108e-23)
(0.401698 0.248209 0)
(1.40505 -1.12026 -7.3073e-29)
(0.247389 -3.0131 -1.42117e-23)
(-0.785518 -4.90299 -1.21625e-24)
(-4.37065 -6.05578 1.34246e-23)
(-5.80317 -6.81823 2.81328e-23)
(-7.76034 -7.614 2.2315e-23)
(-8.56072 -8.84722 -1.54403e-23)
(-12.4663 -12.9748 -1.41357e-23)
(-24.1717 -10.0496 -1.48167e-24)
(-12.8553 -0.254409 -2.33493e-25)
(-10.3744 0.184873 -3.43034e-25)
(-9.57822 0.352633 -2.26143e-25)
(-7.60574 0.784726 0)
(-7.41837 0.905028 3.32904e-25)
(-7.82917 0.805304 4.32584e-25)
(-8.09363 1.2609 2.91876e-24)
(-7.14779 2.79688 8.89533e-25)
(-5.8448 5.83554 4.48412e-25)
(-6.52707 6.39396 5.3212e-24)
(-8.92365 7.26499 3.55934e-24)
(-6.93712 12.4623 -8.21383e-24)
(-14.8259 -4.93243 1.75852e-24)
(-12.071 -3.47794 1.65204e-24)
(-11.8396 -1.84621 0)
(-12.0224 0.162544 1.64229e-24)
(-11.2706 4.97061 1.30935e-24)
(-10.9134 7.15214 2.17656e-24)
(-11.5471 7.88433 0)
(-12.4085 7.58005 -2.20785e-24)
(-13.5059 9.38339 0)
(-12.3667 14.4271 0)
(-12.9301 20.4721 0)
(-13.7611 23.0303 0)
(-17.2684 -5.29221 1.16086e-29)
(-16.1106 -3.49256 0)
(-16.4843 1.96796 0)
(-17.0666 4.5414 -7.15036e-24)
(-16.8077 5.46792 -4.43207e-24)
(-15.3622 5.68812 8.1192e-24)
(-14.6425 7.18534 1.79525e-24)
(-14.1119 10.8348 0)
(-14.0639 18.2592 0)
(-14.1128 22.9899 2.613e-24)
(-13.9706 24.6284 1.56728e-23)
(-13.8475 25.2936 0)
(-18.6836 -4.22177 -7.17745e-25)
(-20.0359 -1.86781 3.44273e-24)
(-20.4468 2.75731 0)
(-21.1722 4.34117 0)
(-20.4251 5.87287 8.19935e-24)
(-20.2887 8.38816 1.1092e-23)
(-18.5823 12.5326 4.80298e-24)
(-18.32 18.6414 0)
(-17.3653 22.7465 0)
(-16.4637 24.4087 -1.92229e-23)
(-15.5393 24.9721 0)
(-15.0663 25.2668 0)
(-19.9964 -1.96206 6.89894e-25)
(-21.3277 0.572769 2.78503e-24)
(-21.0944 5.24797 0)
(-23.155 6.68189 1.58704e-23)
(-23.3689 7.87275 1.6678e-23)
(-23.7851 9.86672 2.19417e-23)
(-21.7773 14.4575 -2.21308e-23)
(-19.5102 19.6379 0)
(-17.448 22.6466 0)
(-16.3853 24.1228 7.26563e-24)
(-15.3115 24.5596 2.29982e-24)
(-14.7045 24.7612 -5.45816e-24)
(-21.5896 -1.38346 1.85356e-24)
(-23.3286 0.962058 2.90299e-25)
(-21.711 6.28775 0)
(-23.3065 8.34741 1.49739e-23)
(-24.2103 8.9902 -1.7053e-23)
(-24.6852 11.1606 2.52351e-23)
(-23.1124 14.7984 -1.02307e-23)
(-19.9109 19.2455 0)
(-17.313 22.1151 0)
(-16.1918 23.2924 3.22929e-23)
(-15.1692 23.3555 -3.76762e-23)
(-14.73 23.1736 0)
(-22.7757 0.954232 -2.26806e-25)
(-25.0649 2.07773 5.60336e-24)
(-22.913 6.87558 2.04111e-24)
(-22.9421 9.96234 1.27078e-23)
(-23.7975 10.6166 -1.55167e-23)
(-24.8847 11.5862 -3.63047e-23)
(-23.673 14.242 3.9238e-23)
(-20.4105 18.0119 -3.95771e-23)
(-16.3763 20.5501 0)
(-14.9643 21.6171 -7.84683e-25)
(-13.7329 21.2966 -6.18226e-23)
(-13.2107 21.4184 8.3579e-25)
(-25.5826 1.37965 2.61904e-25)
(-27.2037 2.24065 1.31886e-23)
(-26.0827 6.28852 -1.16301e-23)
(-23.4417 10.0002 5.80312e-24)
(-23.273 11.3863 -1.50285e-23)
(-23.506 11.973 -5.64202e-23)
(-23.1116 13.3192 5.82867e-23)
(-21.4942 15.7485 -2.25866e-23)
(-16.6623 18.2905 -3.19665e-23)
(-13.4924 19.2034 -4.94074e-29)
(-12.6654 19.4043 -5.03836e-23)
(-11.9038 20.1595 4.0149e-24)
(-26.4633 4.95015 2.75116e-24)
(-29.4164 3.57298 2.40627e-30)
(-29.5927 5.56638 -4.57047e-29)
(-27.2809 9.27877 0)
(-23.5457 11.1814 -7.37294e-24)
(-22.2349 11.1547 -3.58273e-23)
(-20.0836 12.4128 -1.19519e-23)
(-19.4981 13.8879 -7.61883e-24)
(-17.0848 15.0319 -2.5118e-23)
(-13.4658 17.2669 2.23176e-23)
(-11.0053 18.1029 -1.99647e-23)
(-9.75644 19.1292 3.42841e-23)
(-30.058 5.42934 3.37738e-24)
(-31.9345 5.52195 -7.01402e-24)
(-31.1419 6.44779 9.17297e-24)
(-31.5725 7.47634 -5.28784e-24)
(-26.4982 8.35776 -2.68671e-23)
(-23.6046 9.36136 -3.28571e-23)
(-18.8021 10.0342 -1.08545e-23)
(-16.0571 11.288 -4.8004e-24)
(-14.3827 13.2604 -1.46858e-24)
(-12.8697 15.21 0)
(-10.2517 15.4053 -4.63716e-24)
(-7.76697 16.636 2.18034e-23)
(-27.6443 11.2639 1.41545e-25)
(-28.4034 4.53205 -2.75229e-25)
(-25.6792 4.86975 0)
(-25.3022 4.95737 -1.11509e-23)
(-24.3913 4.93481 -9.88445e-24)
(-23.7898 5.45467 -4.3083e-29)
(-20.797 6.80387 -1.4144e-23)
(-16.0163 9.73144 1.61849e-24)
(-12.5435 11.4522 5.85748e-25)
(-10.4579 12.8042 1.0384e-24)
(-9.19065 13.1846 0)
(-7.08107 14.1596 -2.26583e-23)
(-21.156 2.56605 4.67381e-24)
(-16.401 1.81884 6.23474e-25)
(-12.2067 1.14525 0)
(-10.4409 1.35836 6.6601e-24)
(-9.64666 2.1541 1.47557e-24)
(-10.9865 2.5236 -1.65028e-24)
(-15.0745 3.82247 -1.35803e-23)
(-15.7114 6.45772 -1.71933e-24)