/*--------------------------------*- C++ -*----------------------------------*\
| =========                 |                                                 |
| \\      /  F ield         | OpenFOAM: The Open Source CFD Toolbox           |
|  \\    /   O peration     | Version:  2212                                  |
|   \\  /    A nd           | Website:  www.openfoam.com                      |
|    \\/     M anipulation  |                                                 |
\*---------------------------------------------------------------------------*/
FoamFile
{
    version     2.0;
    format      ascii;
    arch        "LSB;label=32;scalar=64";
    class       volVectorField;
    location    "1.5";
    object      U.air;
}
// * * * * * * * * * * * * * * * * * * * * * * * * * * * * * * * * * * * * * //

dimensions      [0 1 -1 0 0 0 0];

internalField   nonuniform List<vector> 
3312
(
(0.897935 13.4671 0)
(1.97642 13.215 -1.89389e-24)
(3.0559 13.5966 -2.08157e-24)
(3.57496 13.9629 0)
(5.02958 14.2301 2.44698e-24)
(9.33401 14.3223 6.86898e-24)
(14.0367 15.854 -3.50679e-25)
(14.7736 18.266 -1.03123e-23)
(14.4783 19.0002 6.17659e-24)
(14.3836 18.9244 5.69703e-24)
(14.3395 17.7687 6.62551e-24)
(14.663 16.1382 -1.28102e-23)
(0.506148 15.2336 -2.58958e-26)
(1.83212 15.1737 -1.34567e-24)
(3.94612 15.8028 0)
(5.83617 16.4776 -6.67927e-24)
(8.95575 17.8623 3.43938e-24)
(12.9085 18.5359 5.56008e-24)
(14.052 18.8753 0)
(12.9737 20.0781 -5.95141e-24)
(12.1622 20.7774 0)
(12.6002 21.0339 0)
(13.3231 20.8125 0)
(13.4613 20.768 0)
(1.46368 16.2982 0)
(3.2243 15.4597 0)
(5.85308 15.2252 0)
(8.69248 15.4382 2.12949e-24)
(11.8225 16.4796 -2.90364e-24)
(14.8696 17.3253 9.75556e-24)
(16.1328 17.8545 3.50935e-24)
(15.9545 19.544 0)
(15.9592 21.0689 0)
(16.9219 21.8835 -1.02109e-23)
(17.8591 22.5372 -1.88509e-25)
(18.0983 23.3418 0)
(-0.474482 17.7308 0)
(1.60048 15.9643 3.14091e-25)
(5.50866 14.9469 0)
(9.72612 14.2724 0)
(13.715 14.6695 7.90292e-25)
(16.618 15.7502 1.39429e-23)
(17.926 17.6334 5.07512e-24)
(17.9017 19.6373 0)
(17.8462 21.9847 0)
(18.8557 22.9968 -6.44927e-24)
(19.8804 23.8125 0)
(20.0484 25.0106 0)
(-1.95478 19.5546 -9.53358e-25)
(0.130838 17.248 -5.68346e-25)
(5.19598 16.5295 0)
(10.3085 14.8459 -6.62329e-24)
(15.432 14.1945 2.63624e-25)
(19.1389 14.3109 1.08224e-23)
(20.6845 15.7927 -5.04567e-24)
(20.6107 18.5774 0)
(20.5595 20.5984 0)
(20.8451 22.0095 -5.41664e-24)
(21.4049 22.6828 6.52471e-25)
(21.6006 23.5625 7.59294e-24)
(-3.06007 21.1358 1.13732e-24)
(-0.064932 20.605 1.37022e-24)
(5.6872 19.964 0)
(11.0798 18.0847 4.1904e-24)
(16.9945 15.7348 -4.29113e-24)
(20.7644 14.7725 2.40462e-23)
(22.7106 14.49 3.94604e-24)
(22.2921 16.5454 0)
(20.9207 19.3977 0)
(20.8369 20.3968 -4.02026e-24)
(20.3376 20.7251 -1.72192e-23)
(20.4006 21.2071 0)
(-2.79681 21.813 -1.28333e-24)
(0.316285 22.1465 -3.23677e-25)
(5.10724 20.8928 -4.47799e-25)
(9.81035 20.5291 5.54833e-24)
(15.8949 17.8391 -6.5596e-24)
(20.4607 15.5337 -1.96015e-23)
(22.6719 14.5873 2.34253e-23)
(22.174 13.559 -2.40587e-23)
(20.9392 15.7027 0)
(18.5556 17.8615 -4.26358e-24)
(17.2784 17.4577 -1.49736e-23)
(16.6822 16.7963 3.45858e-24)
(-4.30168 24.2566 3.72885e-24)
(0.497509 23.7466 1.16729e-23)
(5.87673 22.9754 -6.65651e-24)
(11.6865 22.4953 2.37427e-24)
(16.7789 20.757 -2.46855e-23)
(20.9421 17.6707 -4.19469e-23)
(22.0692 15.4177 6.01988e-23)
(20.6283 13.2706 -3.78467e-23)
(17.8722 11.1485 -3.18032e-23)
(14.8971 12.5583 -3.84509e-28)
(11.835 13.4484 -2.67571e-23)
(10.1655 13.0814 6.03324e-24)
(-3.62086 29.7762 9.12673e-24)
(0.989408 33.1591 -7.36939e-29)
(7.18061 32.1249 5.45012e-29)
(12.1983 30.4872 0)
(16.7685 27.7402 -1.42892e-23)
(20.1226 24.3293 -6.72199e-23)
(20.1881 19.6357 -1.78093e-23)
(17.8812 17.5075 -4.56917e-25)
(14.8593 12.4836 -4.00543e-23)
(11.6964 10.9087 2.43365e-23)
(7.81056 9.88221 -1.36306e-23)
(5.75391 9.43146 1.77805e-23)
(6.9281 30.2543 9.77505e-24)
(6.19315 34.362 -9.64004e-24)
(8.17685 36.263 3.34611e-23)
(14.1674 38.1197 -2.80485e-25)
(18.1276 35.007 -7.09904e-23)
(19.9682 30.487 -7.18004e-23)
(19.2107 23.9054 -1.27135e-23)
(14.4761 18.404 1.09897e-23)
(9.54636 12.9459 3.32256e-23)
(4.53272 8.18189 0)
(-0.105434 5.80812 -2.10195e-23)
(-2.86532 4.45064 1.18275e-24)
(3.83131 31.3345 6.07092e-24)
(4.76442 35.9485 -3.86755e-26)
(11.2885 35.9574 0)
(13.996 35.6047 -3.1804e-23)
(12.2203 30.1326 -3.58712e-23)
(9.5772 23.5954 -6.48069e-30)
(4.20022 14.7248 -1.92303e-23)
(-3.01065 7.02813 -5.79536e-24)
(-6.39923 2.11792 1.5779e-25)
(-8.99341 -1.06407 2.46593e-23)
(-10.5488 -2.38926 0)
(-10.7269 -2.38981 1.00696e-24)
(16.3643 28.8277 8.90386e-25)
(12.432 29.8144 -1.38094e-24)
(8.26038 24.0451 0)
(3.97864 14.4496 3.69673e-24)
(-1.58777 5.26226 -1.89803e-24)
(-6.89511 -1.41084 1.04487e-24)
(-11.429 -6.15269 -3.87622e-23)
(-13.2996 -6.67814 -7.32365e-24)
(-12.6832 -6.82338 -5.72726e-24)
(-12.5714 -6.23511 0)
(-12.2412 -4.97711 -1.44721e-23)
(-10.9606 -3.45802 3.22499e-23)
(13.242 14.7794 1.21506e-23)
(11.6964 12.7345 -1.86915e-24)
(10.09 9.73014 -4.23735e-24)
(7.42442 8.45179 -7.54652e-26)
(4.38941 5.77165 2.96895e-23)
(0.662031 4.29755 1.01169e-22)
(-1.42881 0.800061 5.19195e-23)
(-1.36966 -1.29854 3.96066e-24)
(0.896676 -2.34289 0)
(3.82608 -4.20451 -2.38777e-24)
(8.08292 -2.26292 -1.84518e-24)
(11.9629 -2.19136 -3.05478e-26)
(12.4032 20.1411 0)
(12.0051 19.4351 0)
(9.64676 17.3794 2.37309e-24)
(7.76167 15.8714 0)
(3.36712 14.3384 -7.05691e-24)
(0.149551 11.6164 0)
(-0.469374 4.968 1.85678e-23)
(0.118759 -1.05618 2.38414e-23)
(2.79753 -5.45609 3.66114e-24)
(4.99265 -7.18176 0)
(8.91027 -11.1895 4.09395e-24)
(12.0973 -9.03484 4.1717e-24)
(17.419 24.3379 0)
(16.5718 25.1944 1.58659e-23)
(14.8173 25.003 2.80223e-23)
(12.4319 25.4309 0)
(8.33478 24.4788 0)
(7.92458 20.9751 1.20799e-22)
(5.09672 10.634 5.18853e-23)
(7.67221 1.97058 -1.62591e-23)
(8.93356 -6.025 -3.7823e-23)
(10.3136 -10.5758 0)
(12.6764 -13.357 0)
(14.4058 -15.5952 -3.35924e-29)
(19.9669 26.5113 0)
(19.9805 28.3042 0)
(19.6527 29.8855 8.55309e-25)
(19.0269 31.8292 0)
(17.7111 32.4843 0)
(16.4354 31.9666 8.57307e-23)
(14.9111 19.8837 5.65978e-23)
(13.6245 4.65718 1.31562e-24)
(15.2592 -3.15945 0)
(14.8945 -8.90865 0)
(16.2001 -17.0003 3.31018e-26)
(17.1462 -16.9491 4.78078e-25)
(21.8681 25.1057 -1.92309e-23)
(22.3813 27.1532 3.75401e-25)
(22.8401 29.3973 2.50845e-23)
(22.8739 32.8029 0)
(22.2261 35.8233 0)
(21.1181 37.117 1.74109e-23)
(21.5447 34.3397 1.41132e-23)
(15.6422 12.7192 -1.01599e-23)
(17.6747 -1.42934 1.83061e-23)
(16.8533 -7.25317 0)
(18.4717 -15.7541 -8.59653e-24)
(18.2234 -18.6019 -6.81994e-24)
(20.622 21.8147 -1.36627e-23)
(21.5006 23.6875 -4.96402e-24)
(22.8076 26.3554 -3.89395e-23)
(23.9669 30.5236 0)
(24.3253 35.4359 0)
(24.141 38.3571 4.98191e-23)
(23.9167 39.3925 1.35295e-23)
(24.8661 27.0407 2.67007e-23)
(20.8494 3.127 -2.2767e-23)
(21.7368 -4.95227 0)
(22.03 -17.1312 6.69537e-24)
(21.4541 -18.8216 2.44384e-24)
(16.0121 15.8704 -7.19818e-24)
(16.8914 16.2219 3.35446e-23)
(19.0078 18.5436 3.17512e-23)
(20.8262 23.7393 0)
(23.5786 31.6573 2.24729e-23)
(24.9091 37.9084 -4.48418e-23)
(26.3285 39.7344 8.51482e-23)
(31.3533 33.4113 5.80745e-23)
(27.9707 11.0289 -6.6709e-23)
(28.7352 -1.72848 -5.46944e-24)
(25.9923 -14.37 -3.84821e-23)
(23.0815 -16.6696 -4.50224e-24)
(9.45817 11.5965 -6.59393e-24)
(9.39681 8.42415 2.11293e-24)
(9.66556 7.12041 -8.18456e-28)
(10.3247 8.90262 2.82644e-23)
(12.5617 16.1026 3.22774e-23)
(17.3236 27.3117 -1.22039e-22)
(24.2342 35.1231 1.76532e-22)
(31.1963 35.156 4.62674e-23)
(32.7883 17.5499 -4.83639e-23)
(29.4371 2.55323 5.17938e-23)
(27.7705 -9.96865 -3.98237e-23)
(23.917 -14.566 2.05746e-24)
(3.53538 8.92434 -1.70834e-23)
(2.25173 7.74646 0)
(1.88073 4.86247 -2.21628e-23)
(1.77938 3.46073 3.15741e-23)
(2.41796 4.06206 7.60779e-24)
(3.82985 9.08805 6.66354e-23)
(8.17173 15.8783 1.11021e-22)
(18.1676 24.8855 3.2072e-23)
(29.2428 21.0013 0)
(23.7984 7.79003 1.76701e-29)
(26.7785 -6.99211 -1.64389e-29)
(24.0439 -12.7045 7.18779e-33)
(-4.22696 3.21416 -5.60369e-24)
(-3.73997 2.73398 2.14899e-24)
(-2.44895 1.26398 0)
(-2.19649 1.40929 2.05577e-23)
(-2.5603 2.64697 2.34039e-23)
(-2.8707 6.56801 4.54222e-23)
(1.09707 8.3987 8.69596e-23)
(5.83442 8.53499 3.75595e-23)
(18.7668 13.0101 1.8122e-23)
(20.6081 7.85644 -4.80916e-24)
(25.9953 -8.80436 2.4477e-24)
(24.3344 -15.31 0)
(-10.3148 -2.09164 -9.29729e-24)
(-9.55892 -1.71995 0)
(-8.38497 -2.32323 -2.97867e-24)
(-7.34417 -2.31177 -8.50724e-24)
(-5.95527 -1.65556 -3.16509e-23)
(-4.3625 0.567831 7.73506e-24)
(0.280738 3.73382 -4.49419e-28)
(2.85454 2.71419 -1.54341e-23)
(8.58252 2.97864 -2.22115e-23)
(13.3846 3.1261 0)
(20.2121 -8.38506 9.40455e-25)
(20.5662 -16.1635 2.97411e-25)
(-9.3591 -2.10689 -3.43366e-23)
(-6.95127 -1.074 1.20244e-23)
(-4.06151 -1.79779 0)
(-3.16092 -1.85925 7.24135e-29)
(-2.82169 -1.43454 -1.63355e-23)
(-2.68144 -0.973522 -4.72714e-23)
(-1.37854 1.16684 2.57713e-23)
(0.663359 1.24181 1.169e-23)
(4.78086 0.799875 -7.48485e-23)
(12.4136 -1.9482 2.94571e-23)
(19.3038 -14.2014 1.25667e-24)
(19.9553 -30.5101 1.42437e-23)
(13.0953 -0.734833 1.85729e-25)
(11.9849 -0.925606 -1.22283e-24)
(10.8341 -0.560284 -9.38456e-25)
(9.19222 -0.0367671 0)
(7.15307 -0.538515 1.86184e-25)
(6.75784 0.456905 -1.47404e-23)
(7.75233 -0.423235 -2.0125e-23)
(6.54455 -8.50081 -7.08459e-24)
(8.22887 -16.3315 5.7105e-24)
(12.0637 -19.2052 -3.31838e-23)
(15.8082 -22.9229 9.81272e-24)
(17.8994 -25.4217 7.03293e-23)
(14.9823 2.39909 7.16205e-25)
(13.6124 2.29128 3.95799e-25)
(13.2473 1.93786 0)
(12.1866 1.74823 9.10897e-24)
(13.1038 -0.622577 1.07475e-23)
(12.4117 -8.17426 5.55178e-24)
(16.7184 -17.0697 0)
(17.8788 -21.097 -5.91107e-24)
(20.9575 -25.3049 0)
(21.1901 -27.7562 0)
(24.0114 -31.6329 0)
(24.9603 -33.22 0)
(16.5286 1.54917 0)
(16.304 1.62702 0)
(16.2508 0.933584 0)
(16.0959 -1.80285 -1.74369e-23)
(16.6281 -9.34589 -9.47941e-24)
(17.4873 -18.1764 2.28513e-23)
(18.7986 -24.6037 -2.57886e-24)
(18.7796 -28.9606 0)
(20.1916 -33.3841 0)
(20.9846 -37.3689 -4.37478e-23)
(23.3423 -39.3912 -3.58463e-23)
(25.1021 -39.3464 0)
(18.1754 2.23282 0)
(18.3353 1.8583 3.3953e-24)
(18.5631 0.0578663 0)
(19.189 -4.22415 0)
(18.2709 -12.5623 1.18671e-23)
(17.4536 -21.8052 2.5661e-23)
(18.3034 -27.1019 -3.58437e-24)
(17.7348 -30.7633 0)
(18.608 -35.5165 0)
(19.2446 -38.6216 -8.40914e-24)
(21.6171 -39.517 0)
(24.0632 -39.0634 0)
(19.3611 1.27428 -2.11246e-24)
(19.463 0.665532 2.76806e-24)
(18.8571 -1.7379 0)
(19.6625 -6.03991 1.23675e-23)
(16.9655 -14.0221 1.52638e-23)
(15.3315 -23.7132 1.72198e-23)
(14.8961 -28.3511 -1.6298e-23)
(14.2805 -32.0094 0)
(14.303 -37.2509 0)
(14.8623 -39.5444 -6.67121e-23)
(17.3282 -40.0703 -6.91454e-25)
(20.0442 -38.5872 5.41358e-23)
(21.252 2.41321 -1.05236e-24)
(21.1778 1.45496 5.12138e-25)
(20.1546 -2.02808 0)
(19.851 -6.05674 1.18989e-23)
(17.1053 -13.7939 -1.14284e-23)
(12.5452 -23.9025 1.46591e-23)
(12.281 -28.134 -2.35044e-23)
(10.3952 -32.2524 0)
(9.28221 -36.528 0)
(8.7255 -37.5935 -7.82073e-23)
(10.6437 -36.4194 -9.56756e-23)
(14.0354 -33.3079 0)
(22.8847 1.33046 -5.61755e-25)
(21.9856 1.14859 3.04022e-24)
(20.5674 -1.8869 -1.24884e-25)
(18.6546 -5.54193 7.78761e-24)
(17.9261 -12.2138 -6.58474e-24)
(11.2404 -22.3869 -2.23547e-23)
(9.15939 -27.636 2.71518e-23)
(7.52124 -29.9096 -3.71086e-23)
(4.70571 -32.6838 0)
(2.74075 -31.9186 3.71932e-23)
(3.0363 -29.7393 1.03224e-22)
(5.17936 -25.7545 7.58093e-23)
(24.5745 2.94341 7.48328e-25)
(22.4029 3.20169 1.20273e-23)
(21.8426 -0.0887761 -1.47277e-24)
(16.8426 -5.36959 -3.98338e-24)
(17.1685 -11.8372 -1.44232e-23)
(11.6242 -20.0879 -2.62058e-23)
(7.37331 -25.9007 3.59185e-23)
(5.44345 -27.669 -5.37983e-23)
(2.0659 -28.4677 -5.40328e-23)
(-0.953075 -26.8718 -2.04188e-27)
(-2.67861 -23.0569 -6.59807e-23)
(-1.54613 -16.6608 7.27006e-23)
(25.308 2.86386 -2.57488e-24)
(23.5399 3.38621 -9.3814e-29)
(23.1929 1.63129 2.08236e-28)
(18.2397 -3.07162 0)
(18.0318 -11.5937 -1.36153e-23)
(13.6877 -18.3324 -3.24786e-23)
(8.26109 -24.3813 -2.03806e-23)
(6.20733 -25.0327 -7.92645e-24)
(2.43683 -24.3973 -6.16872e-23)
(-0.560448 -20.7467 7.45088e-23)
(-2.99593 -15.8096 -7.79767e-23)
(-3.30876 -9.79812 1.6795e-22)
(27.7662 6.09126 -1.0434e-23)
(33.1317 4.40766 -3.501e-24)
(36.922 1.29044 3.10599e-23)
(31.2447 -6.61064 -2.57934e-24)
(22.2037 -13.7051 -5.86587e-23)
(18.261 -17.5902 -7.96261e-23)
(11.1466 -24.1212 -3.96145e-23)
(8.35875 -23.4969 -8.65204e-24)
(4.08284 -21.2186 1.71686e-23)
(1.75481 -17.8374 0)
(-2.21959 -12.3952 -6.6106e-23)
(-2.96629 -5.39268 8.01839e-23)
(31.9927 -3.63306 -3.12215e-24)
(39.8248 -7.16771 -2.26507e-24)
(44.3048 -3.76129 0)
(45.5373 -1.24576 -3.30855e-23)
(30.8788 -7.23951 -8.79262e-23)
(29.0005 -17.7014 -2.92597e-28)
(16.1032 -21.3032 -9.11323e-23)
(13.4828 -20.9015 8.52024e-24)
(7.13143 -18.6835 4.16025e-24)
(5.13539 -13.336 3.9854e-23)
(2.35369 -7.42779 0)
(0.72569 -2.64574 -8.41506e-23)
(36.4283 -3.97366 -4.94362e-24)
(42.9161 -5.11176 -5.78026e-24)
(48.045 -1.20904 0)
(51.1234 1.20554 -2.57254e-22)
(45.0606 -11.1306 -1.45747e-22)
(33.446 -16.2909 5.37044e-23)
(23.3699 -18.7779 -2.51375e-22)
(17.3346 -19.4464 -9.32898e-24)
(11.7464 -15.5654 1.09023e-22)
(8.04904 -11.5417 0)
(4.91046 -7.22747 8.22141e-23)
(1.54901 1.79389 -7.63841e-23)
(19.877 -28.3811 -6.44055e-23)
(19.9496 -29.4687 -8.4766e-24)
(19.5754 -30.9713 -3.2851e-25)
(18.089 -30.6743 -1.15092e-23)
(16.2974 -30.5346 -2.83176e-23)
(14.3813 -28.7524 -9.85812e-23)
(12.0213 -26.918 -6.5483e-23)
(10.3409 -23.687 -2.95196e-24)
(7.94785 -20.2182 0)
(4.92604 -16.2781 1.48182e-24)
(3.82573 -14.1263 2.17811e-25)
(-2.42331 -10.0242 -1.97494e-25)
(26.3631 -34.61 0)
(26.626 -34.9371 0)
(26.343 -35.0389 -1.98286e-23)
(25.1307 -33.8792 0)
(23.4629 -32.828 1.00609e-23)
(21.7064 -30.5621 0)
(19.9696 -28.4164 -7.54058e-24)
(18.6551 -25.5282 -1.04365e-24)
(16.9325 -22.3355 3.51767e-24)
(13.645 -19.2274 0)
(10.8539 -16.5636 -1.93225e-24)
(-1.03019 -14.495 1.35712e-25)
(27.0735 -39.2597 0)
(27.9526 -37.6355 4.90612e-25)
(28.6264 -36.4678 -1.32333e-23)
(28.3014 -34.3029 0)
(27.2685 -32.7243 0)
(25.7486 -30.3971 -3.17429e-23)
(23.9138 -28.7836 -1.62251e-23)
(23.2886 -26.6675 3.42554e-24)
(21.4849 -24.6674 7.32266e-24)
(18.6256 -23.6565 0)
(13.1345 -20.5456 0)
(1.89193 -20.8532 -4.17437e-25)
(26.7975 -38.0308 0)
(28.5752 -35.9495 0)
(29.7086 -34.7121 -5.86131e-24)
(30.1627 -32.4255 0)
(29.7625 -31.2932 0)
(28.5728 -29.4478 -3.7186e-23)
(26.5731 -28.5137 -2.84456e-23)
(25.6282 -27.2618 -5.98814e-24)
(23.83 -26.0929 0)
(21.9524 -26.0939 0)
(17.0291 -23.0252 -4.05317e-24)
(11.9129 -24.251 3.87842e-25)
(23.5277 -36.2498 2.08241e-23)
(26.122 -33.0383 -2.27716e-24)
(27.9786 -30.6086 -3.21382e-23)
(29.1366 -27.8606 0)
(29.4482 -26.703 0)
(29.2315 -25.4988 9.26361e-24)
(27.6161 -25.6096 -2.40384e-23)
(27.0241 -25.382 -1.68076e-23)
(25.0069 -25.5322 -1.42759e-23)
(23.9478 -24.9982 0)
(18.8094 -23.4574 -7.89511e-25)
(17.5402 -23.9848 1.58745e-24)
(18.2542 -29.5744 2.15567e-23)
(21.6834 -24.9243 -3.74566e-26)
(24.2406 -22.0928 5.45867e-23)
(25.7873 -19.8608 0)
(26.2246 -19.3588 0)
(26.3239 -19.3643 -3.31449e-23)
(24.9328 -21.0866 -4.56475e-23)
(25.0893 -22.4611 1.86068e-23)
(24.8249 -24.0615 -1.82134e-23)
(24.8219 -24.3099 0)
(19.7791 -23.5562 -1.60436e-24)
(22.1171 -24.5684 -1.41098e-24)
(9.55483 -20.0115 -2.91314e-23)
(14.2766 -14.7995 4.69843e-23)
(17.3204 -12.3571 -5.36901e-23)
(20.0201 -10.3606 0)
(21.2451 -11.1895 2.50732e-23)
(22.0439 -12.3285 -2.90062e-23)
(21.2428 -16.0559 2.76002e-23)
(21.5311 -18.2308 1.93828e-23)
(22.4019 -21.5283 -2.14885e-23)
(24.8341 -22.1246 -6.27e-25)
(20.0458 -23.6709 -5.61259e-24)
(23.6902 -23.2113 2.72329e-25)
(1.6364 -10.1177 -3.88735e-23)
(6.0186 -4.70771 7.2742e-23)
(9.92914 -2.60675 1.36847e-27)
(12.9607 -1.42326 3.33309e-23)
(14.8829 -4.41446 -3.4005e-23)
(15.7107 -7.06065 -1.23162e-22)
(16.0572 -13.3078 3.25854e-23)
(16.9891 -15.6542 2.87974e-23)
(18.6948 -19.9906 -9.38192e-24)
(22.0426 -21.253 2.56634e-23)
(19.4256 -24.168 -2.174e-23)
(22.864 -22.664 -4.44793e-24)
(-1.65204 -3.31939 -1.56109e-22)
(1.48095 1.6566 0)
(4.5432 3.30677 -4.023e-23)
(6.94186 2.80321 2.30302e-23)
(8.4388 -0.907062 5.94187e-23)
(9.20083 -3.90961 5.07015e-23)
(9.5696 -9.89436 3.11793e-23)
(12.2007 -10.871 1.56193e-23)
(14.8651 -16.974 0)
(20.583 -19.7654 -2.03638e-28)
(19.7982 -24.4462 2.70801e-29)
(21.0073 -23.284 1.81124e-30)
(-2.32899 0.770824 -6.29645e-23)
(-0.623781 4.99067 2.09224e-23)
(0.578422 6.68392 0)
(1.82689 6.69688 4.53132e-23)
(2.91353 4.66415 4.85094e-23)
(2.83471 2.52701 4.77144e-23)
(4.24511 -1.29316 4.43489e-23)
(5.79056 -4.81787 3.31396e-23)
(7.28125 -15.3446 2.84943e-23)
(12.6334 -17.286 -3.33646e-24)
(15.3267 -24.3231 2.50956e-23)
(17.7972 -24.0251 4.746e-24)
(-0.539036 2.97945 6.848e-23)
(-0.560133 8.11257 0)
(-1.07674 11.0425 -3.65667e-24)
(-1.50629 11.1421 -5.82765e-23)
(-1.9088 10.2141 -3.21068e-23)
(-2.41646 8.84095 -3.91311e-23)
(-4.08349 4.83276 -3.25125e-28)
(-4.49039 1.18638 -1.27751e-23)
(0.421057 -4.50482 4.38458e-23)
(10.7675 -4.95055 0)
(14.7864 -16.6376 -8.06879e-24)
(16.3007 -23.694 8.40555e-24)
(-1.26644 9.74288 2.68497e-23)
(-1.31279 14.0666 1.96411e-23)
(-2.24317 14.9167 0)
(-2.61218 14.5023 -1.04612e-28)
(-3.05297 14.1543 7.88799e-24)
(-4.18394 12.7783 -8.2128e-23)
(-5.49548 13.2934 5.58377e-23)
(-8.62547 15.4421 -1.02228e-23)
(-9.35161 13.8199 -1.90257e-23)
(-6.9089 8.89272 -7.85436e-24)
(-5.2691 -6.6762 -1.11308e-23)
(-0.137998 -18.3391 4.9022e-24)
(3.76077 -11.4298 0)
(2.2889 -7.91582 1.43528e-24)
(1.98493 -5.05536 1.42592e-24)
(1.37715 -2.11769 0)
(0.777467 -1.05201 -2.05269e-24)
(-0.840169 -0.719779 1.60621e-23)
(-2.55002 -2.06718 5.55968e-23)
(-3.49427 -4.52012 2.78818e-23)
(-4.90037 -4.63022 -3.96017e-25)
(-9.08056 -6.79948 4.58981e-23)
(-16.1507 -8.34111 -5.30354e-24)
(-38.1462 -6.37386 7.14392e-23)
(8.88475 -14.8909 3.24189e-24)
(7.11331 -9.72461 6.3355e-24)
(6.40704 -7.92208 0)
(3.64581 -4.68046 2.40761e-23)
(-0.586533 -2.65185 -1.2689e-23)
(-4.63379 -2.66707 -1.14005e-23)
(-9.41375 -4.84574 0)
(-10.3419 -7.63891 7.26785e-24)
(-14.2192 -10.5776 0)
(-26.9087 -9.85012 0)
(-42.1631 -11.2484 0)
(-44.5925 -11.4501 0)
(12.4922 -17.4016 -2.74646e-29)
(12.1005 -11.2423 0)
(9.06947 -10.855 0)
(5.77301 -6.81735 -5.67238e-24)
(-0.897467 -5.53851 1.25139e-23)
(-10.836 -3.78241 -5.01993e-24)
(-15.072 -4.94261 4.40943e-23)
(-16.9571 -6.3453 0)
(-27.5312 -8.45794 0)
(-40.6535 -7.8158 2.8918e-23)
(-44.8619 -8.03423 -1.51044e-24)
(-44.8318 -8.00475 0)
(15.6047 -19.7929 1.42819e-26)
(14.4998 -14.3869 -1.32262e-24)
(11.1088 -15.4297 0)
(5.38439 -12.0107 0)
(-6.03112 -11.0547 -6.72766e-24)
(-14.3523 -9.25447 3.39285e-23)
(-19.0235 -9.33719 5.03559e-23)
(-27.0424 -9.83788 0)
(-38.1714 -9.67151 0)
(-43.8974 -8.26407 -8.02575e-25)
(-44.7935 -7.60378 0)
(-43.9646 -8.1158 0)
(15.5964 -21.9232 -4.81279e-24)
(15.3382 -18.3184 -4.76921e-24)
(9.47557 -20.6682 0)
(3.10871 -17.8757 3.205e-23)
(-8.82416 -16.9102 1.16377e-23)
(-18.9062 -14.4529 3.64984e-23)
(-27.2232 -14.1297 -1.59055e-23)
(-34.8511 -13.1349 0)
(-41.0243 -11.1315 0)
(-43.6636 -8.3102 1.17556e-23)
(-43.9743 -7.18621 1.1255e-24)
(-42.613 -7.04067 1.90383e-23)
(14.8016 -23.2834 4.26295e-24)
(13.3276 -22.3285 6.30813e-24)
(8.23019 -25.3104 0)
(0.85936 -23.7172 3.23513e-23)
(-13.6075 -22.6611 -3.64383e-23)
(-23.6603 -20.1984 7.93263e-23)
(-30.7498 -18.5019 1.36845e-23)
(-35.9149 -15.422 0)
(-40.3134 -11.8548 0)
(-42.3136 -8.90413 5.09892e-23)
(-42.0173 -7.38162 -2.52046e-23)
(-40.0006 -7.0017 0)
(12.2781 -25.4939 -9.10288e-24)
(10.8298 -24.5989 -1.97202e-24)
(4.83063 -28.3006 -7.04182e-24)
(-2.32755 -26.8782 3.90479e-23)
(-16.148 -25.8348 -4.4356e-23)
(-24.6806 -22.9497 -9.03133e-23)
(-30.6203 -20.0101 8.50744e-23)
(-34.869 -16.474 -7.92658e-23)
(-38.5516 -12.1664 0)
(-40.0516 -8.49751 -1.28913e-23)
(-38.9508 -6.30198 -1.03046e-22)
(-35.7817 -5.36438 3.96501e-23)
(10.2456 -26.9031 -6.80134e-24)
(8.52354 -28.0079 3.27233e-23)
(3.05016 -31.1522 -3.28022e-23)
(-3.41052 -29.0789 4.10388e-23)
(-17.7154 -27.2514 -2.33316e-23)
(-24.3263 -23.9084 -1.56871e-22)
(-29.6527 -20.7401 1.39891e-22)
(-33.0636 -16.858 -4.89198e-23)
(-35.3224 -12.2512 -6.81634e-23)
(-35.7352 -8.0667 -5.99987e-28)
(-33.2042 -5.32357 -7.20525e-23)
(-30.199 -3.94092 4.71114e-23)
(5.90101 -27.7783 1.37481e-24)
(4.23746 -30.699 -6.72885e-29)
(1.28051 -31.7619 7.5207e-29)
(-4.79037 -31.0452 0)
(-17.5652 -27.4252 -1.02388e-23)
(-23.0439 -24.0805 -9.34395e-23)
(-27.5556 -20.3656 -2.02657e-23)
(-29.5498 -16.5825 -1.90666e-23)
(-31.0885 -12.1974 -6.43703e-23)
(-30.8442 -7.36584 6.1847e-23)
(-28.4934 -4.25398 -5.71425e-23)
(-25.5965 -2.05259 1.06125e-22)
(5.05752 -30.9433 7.01258e-24)
(4.61811 -34.5687 -1.38006e-23)
(1.41163 -34.7969 3.21113e-23)
(-4.7377 -35.1687 -7.09225e-24)
(-16.6988 -28.8084 -9.60475e-23)
(-21.6111 -25.3598 -9.44119e-23)
(-25.5584 -20.7365 -2.03695e-23)
(-27.2347 -16.5222 -1.09383e-23)
(-27.5002 -12.1067 4.91848e-25)
(-26.0536 -7.04645 0)
(-23.4371 -4.08762 -4.10784e-23)
(-20.6623 -1.63138 4.91005e-23)
(-4.76548 -30.6031 -9.89163e-25)
(-2.65069 -35.2384 2.62722e-24)
(-2.35588 -33.5907 0)
(-5.3666 -34.6305 -5.55599e-23)
(-14.2491 -28.4726 -6.70884e-23)
(-18.6507 -23.6979 -7.81798e-29)
(-21.4722 -19.3107 -5.1402e-23)
(-22.2047 -15.3614 4.75955e-24)
(-21.4915 -11.8131 3.04598e-24)
(-20.6835 -7.14569 2.17645e-23)
(-18.6681 -3.28698 0)
(-15.5388 -0.284216 -9.7329e-23)
(0.634708 -30.0687 -7.89185e-24)
(5.5823 -38.1412 2.99319e-24)
(4.40603 -38.7977 0)
(-1.86142 -39.7203 -2.42358e-22)
(-11.0351 -32.6062 -9.60283e-23)
(-16.3077 -25.8787 3.89581e-23)
(-19.5176 -19.7855 -1.0438e-22)
(-20.4148 -15.0059 8.19431e-24)
(-19.1718 -10.4469 5.61003e-23)
(-17.2858 -6.11352 0)
(-13.7612 -2.86888 6.65841e-23)
(-10.8942 -0.602304 -1.55127e-22)
(-45.4709 -17.0211 -1.8369e-22)
(-48.6563 -20.6635 -1.46398e-23)
(-54.1028 -21.9628 9.64454e-23)
(-54.9667 -23.2073 -2.44936e-23)
(-56.1571 -22.0781 4.40715e-24)
(-55.3082 -20.9275 -1.90851e-22)
(-53.995 -18.9765 -1.93534e-22)
(-51.5784 -17.49 -5.37255e-24)
(-47.7039 -16.9627 0)
(-43.7595 -17.4549 -7.33678e-24)
(-31.3651 -20.2235 -1.16506e-23)
(-26.4261 -23.1985 9.94757e-25)
(-42.3957 -17.4951 0)
(-39.2054 -21.6939 0)
(-38.3138 -24.38 -2.27403e-23)
(-36.2717 -25.3202 0)
(-35.7999 -24.7036 1.8699e-23)
(-35.1193 -22.745 0)
(-33.3644 -21.1127 -1.43287e-23)
(-31.4164 -18.5851 2.28999e-23)
(-28.1898 -17.3978 2.068e-23)
(-26.8228 -18.2458 0)
(-19.8379 -25.2564 3.84463e-24)
(-20.2889 -35.4156 2.86268e-24)
(-42.0073 -11.5472 0)
(-38.7441 -14.6746 2.46905e-23)
(-37.2678 -16.6324 8.34734e-24)
(-35.5591 -18.6265 0)
(-35.2395 -20.0872 0)
(-32.9557 -21.064 -4.13499e-23)
(-30.0212 -21.747 -2.30198e-23)
(-27.4829 -21.3004 -3.54474e-24)
(-23.2586 -21.0504 -1.87538e-23)
(-21.6252 -21.9674 0)
(-15.5642 -26.687 0)
(-19.5697 -38.3609 0)
(-40.4379 -11.7318 0)
(-36.1319 -15.9774 0)
(-34.1878 -18.4087 3.548e-24)
(-33.5914 -20.4642 0)
(-32.3264 -22.3572 0)
(-29.7832 -24.4085 -2.56298e-23)
(-27.4271 -25.5522 -2.65135e-23)
(-25.3059 -25.5898 1.96195e-24)
(-22.102 -25.3222 0)
(-21.1458 -26.3904 0)
(-15.5324 -28.1143 2.1455e-24)
(-19.8367 -36.4643 0)
(-38.2738 -10.0862 -2.45628e-23)
(-34.6435 -13.4754 -5.467e-27)
(-34.2416 -15.6585 1.23072e-23)
(-33.1641 -17.7097 0)
(-30.2285 -21.1144 0)
(-27.1275 -23.7981 -1.94133e-24)
(-24.2184 -25.85 -1.50349e-23)
(-23.0067 -26.8971 -2.52544e-25)
(-20.6371 -27.1046 -3.69738e-24)
(-21.3646 -28.3964 0)
(-16.6459 -29.6597 4.36567e-24)
(-21.0131 -35.2164 4.8635e-24)
(-35.5631 -9.11557 -1.83883e-23)
(-32.8934 -11.834 3.05074e-23)
(-31.6887 -14.1014 1.50018e-23)
(-28.9192 -17.1916 0)
(-24.7965 -21.1684 0)
(-21.6587 -24.5949 -2.89804e-23)
(-19.2677 -25.9779 -3.49972e-23)
(-19.4984 -26.9621 9.3068e-24)
(-18.3533 -27.2971 -1.08078e-23)
(-20.8728 -29.1385 0)
(-17.4876 -30.6217 -5.40584e-24)
(-21.9205 -32.7343 -6.216e-24)
(-31.7904 -6.59898 -4.07393e-23)
(-29.0938 -9.03086 -2.92046e-23)
(-27.2285 -11.3646 -1.56182e-23)
(-23.7528 -15.122 0)
(-19.4405 -19.5325 1.22936e-23)
(-17.1926 -23.2845 -2.12356e-23)
(-15.8901 -24.7656 3.15448e-23)
(-17.3294 -25.3717 1.92146e-23)
(-17.3369 -25.2228 -2.24573e-23)
(-20.2504 -27.2035 2.7809e-24)
(-20.1567 -30.3714 6.29409e-24)
(-23.2134 -30.1123 6.07874e-24)
(-26.8029 -4.2404 -4.7621e-23)
(-24.2831 -5.44547 -1.66954e-24)
(-21.159 -7.58968 -7.40249e-28)
(-16.7377 -11.9183 2.75907e-23)
(-12.6213 -16.7776 -1.80766e-24)
(-11.6837 -20.6173 -1.36873e-22)
(-12.0393 -22.3579 5.74715e-23)
(-14.9949 -23.1843 3.38293e-23)
(-16.5316 -23.7885 -1.85627e-23)
(-20.4505 -24.2039 3.15593e-23)
(-21.6852 -28.9318 -3.91132e-23)
(-26.499 -29.3245 -4.86479e-24)
(-22.4198 -1.98006 -9.94219e-23)
(-17.9053 -2.69219 0)
(-14.2249 -4.95555 -3.95779e-23)
(-9.44027 -8.86928 3.98032e-23)
(-6.62671 -13.1924 3.30008e-23)
(-7.11154 -16.7741 5.15466e-23)
(-8.73459 -18.3724 6.27736e-23)
(-13.2099 -19.1318 2.04771e-23)
(-15.3475 -19.945 0)
(-21.8567 -21.1933 -1.23485e-28)
(-22.1113 -25.7678 -3.52372e-29)
(-27.941 -29.207 9.1178e-32)
(-16.6177 -1.24199 -4.29128e-23)
(-12.2935 -1.19163 3.91025e-23)
(-8.72457 -2.54539 0)
(-3.71834 -5.85008 9.1415e-23)
(-2.66965 -9.54199 3.36206e-23)
(-3.89372 -12.5638 4.42548e-23)
(-6.55877 -13.8571 7.67678e-23)
(-11.2387 -14.864 5.29148e-23)
(-14.2642 -15.0736 1.78619e-23)
(-21.228 -16.1794 -2.04712e-23)
(-21.0825 -23.26 3.06609e-23)
(-28.2228 -26.7791 3.55677e-24)
(-11.112 0.739393 9.7561e-23)
(-6.48337 0.677157 0)
(-1.56123 -0.541514 -2.44025e-23)
(1.19017 -3.55283 1.60744e-22)
(0.572007 -6.33892 -2.51986e-23)
(-1.71001 -9.19425 2.21902e-23)
(-4.98395 -10.2321 -2.77138e-28)
(-9.5007 -11.0101 1.52244e-23)
(-11.9822 -10.9377 2.54738e-23)
(-16.2274 -13.3149 0)
(-15.3649 -19.9727 -5.82835e-24)
(-25.7965 -24.1629 6.29305e-24)
(-6.74004 0.170143 1.39997e-22)
(-2.40508 0.21054 -6.28139e-23)
(0.40216 0.24812 0)
(1.40518 -1.12029 -7.30742e-29)
(0.247412 -3.01312 -1.42117e-23)
(-0.7855 -4.903 -1.21626e-24)
(-4.37062 -6.05583 1.3425e-23)
(-5.80308 -6.81905 2.81371e-23)
(-7.76072 -7.61934 2.23301e-23)
(-8.56301 -8.86996 -1.54782e-23)
(-12.507 -13.075 -1.42536e-23)
(-25.0831 -10.7611 -1.62793e-24)
(-12.8553 -0.254411 -2.33494e-25)
(-10.3744 0.184872 -3.43034e-25)
(-9.57822 0.352632 -2.26144e-25)
(-7.60574 0.784725 0)
(-7.41837 0.905027 3.32904e-25)
(-7.82917 0.805303 4.32585e-25)
(-8.09363 1.2609 2.91877e-24)
(-7.1478 2.79688 8.89535e-25)
(-5.8448 5.83554 4.48413e-25)
(-6.52707 6.39396 5.32121e-24)
(-8.92365 7.26499 3.55934e-24)
(-6.93712 12.4623 -8.21385e-24)
(-14.8259 -4.93243 1.75852e-24)
(-12.071 -3.47794 1.65204e-24)
(-11.8396 -1.84621 0)
(-12.0224 0.162543 1.64229e-24)
(-11.2706 4.97061 1.30935e-24)
(-10.9134 7.15214 2.17656e-24)
(-11.5471 7.88433 0)
(-12.4085 7.58005 -2.20786e-24)
(-13.5059 9.38339 0)
(-12.3667 14.4271 0)
(-12.9301 20.4721 0)
(-13.7611 23.0303 0)
(-17.2684 -5.29222 1.16087e-29)
(-16.1106 -3.49256 0)
(-16.4843 1.96796 0)
(-17.0666 4.5414 -7.15038e-24)
(-16.8077 5.46792 -4.43208e-24)
(-15.3622 5.68811 8.11921e-24)
(-14.6425 7.18534 1.79525e-24)
(-14.1119 10.8348 0)
(-14.0639 18.2592 0)
(-14.1128 22.9899 2.613e-24)
(-13.9706 24.6283 1.56728e-23)
(-13.8475 25.2936 0)
(-18.6836 -4.22178 -7.17746e-25)
(-20.0359 -1.86781 3.44273e-24)
(-20.4468 2.7573 0)
(-21.1722 4.34117 0)
(-20.4251 5.87287 8.19937e-24)
(-20.2887 8.38816 1.10921e-23)
(-18.5823 12.5326 4.80299e-24)
(-18.32 18.6414 0)
(-17.3653 22.7465 0)
(-16.4637 24.4087 -1.9223e-23)
(-15.5393 24.9721 0)
(-15.0663 25.2668 0)
(-19.9964 -1.96207 6.89895e-25)
(-21.3277 0.572766 2.78504e-24)
(-21.0944 5.24797 0)
(-23.155 6.68189 1.58705e-23)
(-23.3689 7.87275 1.6678e-23)
(-23.7851 9.86671 2.19418e-23)
(-21.7773 14.4575 -2.21308e-23)
(-19.5102 19.6379 0)
(-17.448 22.6466 0)
(-16.3853 24.1228 7.26564e-24)
(-15.3115 24.5596 2.29982e-24)
(-14.7045 24.7612 -5.45818e-24)
(-21.5896 -1.38346 1.85356e-24)
(-23.3286 0.962055 2.903e-25)
(-21.711 6.28775 0)
(-23.3065 8.3474 1.49739e-23)
(-24.2103 8.99019 -1.70531e-23)
(-24.6852 11.1606 2.52352e-23)
(-23.1124 14.7984 -1.02308e-23)
(-19.9109 19.2455 0)
(-17.313 22.1151 0)
(-16.1919 23.2924 3.2293e-23)
(-15.1692 23.3555 -3.76763e-23)
(-14.73 23.1736 0)
(-22.7757 0.954229 -2.26806e-25)
(-25.0649 2.07772 5.60337e-24)
(-22.913 6.87557 2.04112e-24)
(-22.9422 9.96234 1.27079e-23)
(-23.7975 10.6166 -1.55168e-23)
(-24.8847 11.5862 -3.63049e-23)
(-23.673 14.2419 3.92382e-23)
(-20.4105 18.0119 -3.95772e-23)
(-16.3763 20.5501 0)
(-14.9643 21.6171 -7.84685e-25)
(-13.7329 21.2966 -6.18228e-23)
(-13.2107 21.4184 8.35794e-25)
(-25.5826 1.37965 2.61904e-25)
(-27.2037 2.24065 1.31886e-23)
(-26.0827 6.28852 -1.16302e-23)
(-23.4417 10.0002 5.80314e-24)
(-23.273 11.3863 -1.50286e-23)
(-23.5061 11.9729 -5.64206e-23)
(-23.1116 13.3192 5.8287e-23)
(-21.4942 15.7485 -2.25867e-23)
(-16.6623 18.2905 -3.19666e-23)
(-13.4924 19.2034 -4.94077e-29)
(-12.6655 19.4043 -5.03841e-23)
(-11.9039 20.1595 4.01496e-24)
(-26.4633 4.95014 2.75116e-24)
(-29.4164 3.57298 2.40628e-30)
(-29.5927 5.56638 -4.57048e-29)
(-27.2809 9.27876 0)
(-23.5457 11.1814 -7.37296e-24)
(-22.2349 11.1547 -3.58274e-23)
(-20.0836 12.4128 -1.1952e-23)
(-19.4983 13.888 -7.61923e-24)
(-17.0857 15.0331 -2.51223e-23)
(-13.4668 17.2708 2.2326e-23)
(-11.0062 18.1102 -1.99773e-23)
(-9.75795 19.1406 3.43157e-23)
(-30.0581 5.42934 3.37739e-24)
(-31.9345 5.52194 -7.01403e-24)
(-31.1419 6.44778 9.173e-24)
(-31.5726 7.47632 -5.28796e-24)
(-26.4989 8.35791 -2.68695e-23)
(-23.6072 9.36269 -3.28674e-23)
(-18.8069 10.0391 -1.08632e-23)
(-16.0643 11.303 -4.80837e-24)
(-14.3917 13.2927 -1.47246e-24)
(-12.8775 15.2581 0)
(-10.2533 15.4583 -4.65381e-24)
(-7.76174 16.7021 2.18928e-23)
(-27.6485 11.2657 1.41579e-25)
(-28.4083 4.5321 -2.75313e-25)
(-25.6932 4.87086 0)
(-25.3447 4.96483 -1.11819e-23)
(-24.4696 4.95155 -9.93595e-24)
(-23.9069 5.49098 -4.34397e-29)
(-20.9284 6.87808 -1.43074e-23)
(-16.1127 9.86574 1.6414e-24)
(-12.598 11.6208 5.94497e-25)
(-10.4818 12.9747 1.0523e-24)
(-9.19777 13.3251 0)
(-7.06843 14.2889 -2.28626e-23)
(-21.4407 2.62494 4.74802e-24)
(-16.8568 1.901 6.46317e-25)
(-12.7562 1.1948 0)
(-11.0751 1.42237 7.22772e-24)
(-10.2652 2.2295 1.59018e-24)
(-11.5963 2.57384 -1.74355e-24)
(-15.8634 4.03948 -1.47426e-23)
(-16.3855 6.85482 -1.83736e-24)