/*--------------------------------*- C++ -*----------------------------------*\
| =========                 |                                                 |
| \\      /  F ield         | OpenFOAM: The Open Source CFD Toolbox           |
|  \\    /   O peration     | Version:  2212                                  |
|   \\  /    A nd           | Website:  www.openfoam.com                      |
|    \\/     M anipulation  |                                                 |
\*---------------------------------------------------------------------------*/
FoamFile
{
    version     2.0;
    format      ascii;
    arch        "LSB;label=32;scalar=64";
    class       volVectorField;
    location    "1.5";
    object      U.air;
}
// * * * * * * * * * * * * * * * * * * * * * * * * * * * * * * * * * * * * * //

dimensions      [0 1 -1 0 0 0 0];

internalField   nonuniform List<vector> 
3312
(
(0.0445182 12.9361 0)
(0.148381 10.7528 -7.02777e-25)
(0.848463 9.45335 -4.00496e-25)
(1.55846 8.2236 0)
(1.97235 7.809 1.2199e-25)
(2.22399 7.27919 -1.00554e-24)
(2.33095 6.52845 6.14105e-24)
(2.32466 6.59183 1.09433e-23)
(2.78037 7.67835 -4.2427e-25)
(4.19663 8.06025 2.77557e-23)
(10.1386 7.94872 -2.34172e-24)
(23.606 5.03705 6.50438e-24)
(-4.3048 14.6119 1.80734e-24)
(-3.70446 12.1396 2.54596e-24)
(-1.61795 11.0675 0)
(0.399972 9.86642 5.11765e-24)
(1.9169 9.84999 2.03813e-24)
(2.37685 10.5974 1.74437e-24)
(4.16904 10.8799 0)
(8.46835 9.76743 -1.90251e-24)
(12.5923 10.33 0)
(18.111 10.3043 0)
(29.5424 10.2334 0)
(35.3723 10.1707 0)
(-5.44145 16.4959 0)
(-4.66757 13.875 0)
(-1.51434 13.0808 0)
(1.75063 11.7797 -2.67367e-24)
(5.08649 11.8374 -1.04119e-24)
(6.90601 12.3527 7.72592e-24)
(9.26 13.9461 4.22442e-24)
(12.5246 13.3138 0)
(16.9556 12.6674 0)
(24.8608 9.8 1.93745e-24)
(34.8538 7.58282 2.4233e-24)
(37.4765 6.78876 0)
(-8.07754 18.4579 0)
(-6.87585 15.6468 6.23038e-25)
(-2.62094 15.343 0)
(2.05792 13.4419 0)
(6.28444 13.832 1.18571e-24)
(8.80154 14.1417 2.05692e-23)
(11.6283 15.5112 1.21535e-23)
(15.0409 14.2393 0)
(20.0136 12.4508 0)
(28.0502 8.31892 -1.58087e-23)
(35.1682 4.66044 0)
(36.3535 3.91344 0)
(-8.63875 20.2979 -3.60007e-24)
(-7.01869 18.1342 -3.07281e-24)
(-2.23386 18.1064 0)
(3.52795 15.6597 2.27536e-24)
(9.41929 15.2591 4.48392e-24)
(12.7409 15.4229 2.48885e-23)
(14.4442 16.7135 -1.55636e-23)
(15.9739 15.953 0)
(20.7316 13.2669 0)
(28.1273 8.70013 1.28006e-23)
(33.2728 2.92632 2.7485e-24)
(34.1281 0.916281 3.46271e-23)
(-9.16435 22.4007 3.8647e-24)
(-7.30242 21.6682 5.50506e-24)
(-2.58338 21.5165 0)
(3.84488 19.8703 1.03444e-23)
(10.6602 17.9609 -1.14095e-23)
(14.1304 17.6057 5.09676e-23)
(15.1296 17.7877 6.11558e-24)
(16.6843 17.3618 0)
(22.166 14.6536 0)
(27.4728 10.2281 2.04334e-23)
(31.0456 3.80152 -6.79676e-23)
(30.7018 0.536245 0)
(-7.12165 24.5016 -3.5698e-24)
(-6.04989 24.9438 -3.2176e-24)
(-1.24534 25.8553 -7.33373e-24)
(5.13532 23.9837 2.23793e-23)
(12.0954 21.3821 -2.11448e-23)
(15.8488 20.0173 -4.56369e-23)
(16.7077 19.5358 5.20703e-23)
(18.6824 19.1947 -5.96446e-23)
(22.7762 16.4976 0)
(25.8873 12.4984 -9.478e-23)
(27.8968 6.37189 -1.48511e-22)
(27.2806 1.28075 2.81696e-23)
(-4.9744 26.6031 6.2215e-24)
(-3.85261 28.3255 3.63232e-23)
(-0.342369 29.7192 -3.35761e-23)
(5.16973 29.1654 3.87825e-23)
(12.3666 25.9109 -2.6762e-23)
(16.1988 23.7766 -1.0482e-22)
(17.6462 22.4076 1.36073e-22)
(19.3214 21.5642 -3.37369e-23)
(22.2467 18.4917 -7.09516e-23)
(23.8992 14.9742 8.34629e-28)
(24.9424 9.8906 -1.48046e-22)
(24.3255 4.85936 2.25912e-23)
(-1.33849 27.7952 9.50668e-24)
(-1.79268 30.8793 -8.17167e-29)
(1.78502 32.3302 2.21918e-28)
(6.72143 33.8569 0)
(12.8306 30.811 -1.00229e-23)
(17.0782 27.944 -9.58695e-23)
(18.7669 25.8143 -3.36414e-23)
(19.8046 23.6701 -3.40675e-23)
(21.8136 20.4156 -6.23469e-23)
(22.4213 16.4886 6.11231e-23)
(22.4435 11.4421 -6.34231e-23)
(21.4066 6.75533 1.32374e-22)
(1.64707 29.5438 9.83321e-24)
(1.52816 32.1282 -1.11331e-23)
(4.61281 34.4252 3.68117e-23)
(8.41011 36.2133 2.43299e-24)
(12.6248 34.245 -8.96488e-23)
(16.4617 30.9421 -9.50494e-23)
(17.0939 27.3342 -2.76161e-23)
(17.6852 24.8518 -1.60915e-23)
(18.5793 20.953 -1.52679e-23)
(17.6581 17.6655 0)
(18.0684 13.4975 -2.96478e-24)
(17.0088 8.50049 3.26517e-23)
(4.0479 27.9161 4.77306e-24)
(2.56584 32.645 6.75697e-25)
(6.08163 33.7169 0)
(8.32918 35.2442 -6.06735e-23)
(11.1037 34.2031 -5.835e-23)
(13.6628 31.7686 -1.09407e-28)
(14.3003 27.0486 -4.26056e-23)
(15.177 24.1452 8.99104e-24)
(15.373 19.7241 2.35101e-24)
(15.5593 16.1916 3.59753e-24)
(14.9929 13.1558 0)
(12.4759 9.69907 -9.05972e-24)
(4.19816 27.5927 1.35978e-24)
(6.91487 28.9345 2.42543e-24)
(7.19354 28.8347 0)
(8.0564 27.7302 -5.95964e-23)
(8.96729 26.5028 -3.12425e-23)
(9.38638 24.6682 1.73151e-23)
(9.45595 22.3646 -4.68389e-23)
(9.81153 19.9722 4.3267e-24)
(10.1589 17.1183 3.29346e-23)
(10.328 13.9538 0)
(9.93594 10.7196 2.23467e-23)
(8.98295 8.50936 -1.97783e-23)
(33.265 11.3094 -1.08984e-22)
(33.895 16.5651 -9.43479e-24)
(37.1964 18.0013 9.30286e-23)
(37.3749 18.95 -1.64685e-23)
(37.2266 18.5973 -9.3308e-24)
(35.1277 17.51 -1.52294e-22)
(32.0883 15.6739 -1.13861e-22)
(27.2225 13.4903 -2.11846e-24)
(21.548 10.4545 0)
(16.8711 8.53092 -1.86368e-24)
(10.4047 5.6755 -4.56918e-24)
(9.84718 -4.41826 -1.01755e-24)
(35.9127 13.3822 0)
(33.8267 18.0796 0)
(35.0267 20.8458 -1.42558e-23)
(34.713 22.527 0)
(34.7255 23.2322 9.33372e-24)
(33.4313 23.5003 0)
(30.8095 24.3032 -1.19255e-24)
(27.2281 23.8656 1.35056e-23)
(22.7455 21.7052 -2.33383e-23)
(18.5535 19.0703 0)
(14.7219 11.4216 -1.43231e-23)
(13.2777 -5.78171 -2.05236e-26)
(37.4008 9.50796 0)
(36.4253 12.7754 4.65621e-23)
(36.8554 15.0596 3.69986e-23)
(35.527 18.5393 0)
(34.5335 21.3933 0)
(33.526 23.9002 5.43776e-24)
(30.9418 27.0702 1.33579e-23)
(28.2329 28.9323 -1.12767e-23)
(24.3425 28.4439 7.27298e-24)
(20.9638 26.038 0)
(18.0223 16.9185 0)
(15.8554 -5.04526 5.48665e-31)
(35.9289 5.70217 0)
(34.4544 10.1168 0)
(33.527 13.6224 7.97259e-25)
(32.5384 17.0171 0)
(32.924 20.0982 0)
(32.5441 23.6961 1.38323e-23)
(30.4489 28.5015 1.72364e-24)
(28.2134 32.3627 3.44343e-24)
(25.2192 33.4628 0)
(23.712 32.5405 0)
(20.5727 21.1525 1.39051e-24)
(20.6304 -1.41558 -1.74194e-24)
(33.1295 1.03001 -1.01161e-22)
(31.4334 3.58982 2.24364e-24)
(30.5023 7.26194 4.7927e-23)
(30.1585 11.0312 0)
(30.4219 14.9987 0)
(29.3764 20.3781 -6.65369e-24)
(27.9615 27.4559 -4.95619e-24)
(27.0261 33.2899 -4.59267e-24)
(25.2125 35.3091 -1.80506e-23)
(25.1531 35.7499 0)
(22.623 24.2672 1.72809e-24)
(26.2674 4.1992 5.4142e-24)
(29.0792 -0.619194 -6.98099e-23)
(27.0017 0.262644 -3.54701e-24)
(25.6298 2.81653 -1.12161e-22)
(25.2733 6.40033 0)
(24.8423 10.6661 0)
(24.0178 16.1707 2.32632e-23)
(23.538 22.7795 -5.20539e-23)
(23.4029 31.4262 2.95857e-23)
(23.5102 35.878 -3.92803e-23)
(24.9531 37.0329 0)
(23.7731 26.4614 -3.07859e-24)
(27.8087 13.6696 -1.28317e-24)
(25.5916 -1.30937 -5.79328e-23)
(23.5626 -2.23312 1.56083e-22)
(21.7831 -1.81937 6.63212e-23)
(21.1016 0.686325 0)
(19.7058 4.80462 5.36079e-23)
(18.1443 10.212 -6.41298e-23)
(17.5751 16.9346 7.58622e-23)
(17.3333 25.2053 5.37227e-23)
(20.5894 31.4645 -6.6219e-23)
(24.2661 36.4153 -4.25031e-24)
(26.1956 28.7639 6.52842e-24)
(29.0592 18.172 3.00699e-24)
(22.6702 0.964505 -5.32063e-23)
(20.3577 -0.936288 1.09501e-23)
(18.5491 -1.84589 -2.10762e-27)
(16.2757 -1.24324 7.14302e-23)
(13.545 2.07344 1.06741e-22)
(11.3137 7.31427 -1.08671e-22)
(11.3945 12.6878 1.60764e-22)
(11.8004 20.5035 1.14125e-22)
(16.7801 24.2505 -1.78511e-23)
(21.957 31.7663 9.01087e-23)
(27.3479 29.2699 -1.70319e-23)
(31.577 20.7974 -5.066e-24)
(19.4501 2.28317 -1.34401e-22)
(16.9104 -1.25987 0)
(14.6398 -2.93146 -6.32597e-23)
(10.4051 -3.12883 6.39061e-23)
(7.54482 -1.71267 -2.32272e-23)
(5.79195 2.12664 2.99995e-23)
(7.01213 6.64365 1.35542e-22)
(7.30511 13.3848 6.57996e-23)
(15.0771 16.9551 0)
(18.7616 24.7154 -1.09132e-27)
(27.4951 27.1437 2.49761e-29)
(33.8866 22.7788 -1.45839e-31)
(14.4263 4.40581 -2.56578e-23)
(11.9723 0.646899 6.13082e-23)
(9.14915 -1.05834 0)
(5.78319 -1.72983 4.78755e-23)
(4.43953 -1.14002 -1.44865e-23)
(2.53924 0.586334 2.82313e-23)
(2.52254 4.02095 1.46025e-22)
(3.83835 8.34093 1.22785e-22)
(12.1025 10.4968 8.65852e-23)
(14.0792 17.5909 -2.67667e-23)
(22.0241 23.3939 6.01897e-23)
(35.1759 21.6809 0)
(10.494 5.26722 7.40946e-24)
(9.41614 0.860379 0)
(6.71578 -1.75567 -5.45568e-23)
(4.33671 -2.74982 8.8449e-23)
(1.09789 -3.32379 1.44073e-23)
(-2.10655 -2.043 1.00536e-23)
(-2.04157 -0.818374 -5.6794e-28)
(-0.958924 0.687548 1.11255e-23)
(4.21548 3.13709 4.66632e-23)
(3.31883 11.6522 0)
(15.0702 18.3702 -1.69349e-23)
(31.5999 15.4136 -9.17736e-24)
(7.16568 6.84068 -2.32095e-23)
(5.04328 3.48324 2.72695e-23)
(1.9079 0.340548 0)
(-1.78353 -0.582056 -4.94255e-29)
(-5.1807 -0.999074 6.67922e-24)
(-6.51937 -1.14331 -6.06411e-24)
(-7.11259 -0.486018 8.33131e-24)
(-6.80669 0.235101 4.57838e-24)
(-5.5893 1.99105 3.667e-23)
(-1.94748 5.65156 -2.45347e-23)
(15.7667 9.51978 -1.72323e-23)
(36.9942 -4.43582 -1.63017e-23)
(12.3121 1.55598 1.16689e-25)
(9.52275 0.270981 1.59424e-25)
(8.20781 -0.467296 4.44467e-25)
(6.5433 -1.94418 0)
(7.19148 -3.64637 -2.52101e-25)
(7.99333 -5.07192 1.79292e-23)
(9.42321 -6.32262 3.47984e-23)
(10.4375 -7.40227 8.90491e-24)
(11.6725 -7.60496 4.61511e-24)
(12.5781 -8.64214 1.82295e-23)
(13.1598 -13.4059 3.46945e-24)
(10.1575 -27.1087 1.06681e-23)
(14.719 6.24122 2.66048e-24)
(10.5194 4.24312 5.28999e-24)
(9.51672 2.40403 0)
(7.36015 -1.57094 6.19944e-24)
(7.88554 -5.18069 -1.87443e-23)
(8.60371 -7.56612 -3.41689e-24)
(10.4278 -9.2921 0)
(12.844 -10.8281 -2.19853e-24)
(14.3373 -13.8022 0)
(14.0018 -21.3443 0)
(13.927 -33.0585 0)
(14.4285 -38.861 0)
(16.9356 9.50997 0)
(11.3222 7.57596 0)
(10.9798 3.35248 0)
(8.65945 -2.78631 1.45071e-23)
(8.29998 -8.16206 8.57076e-24)
(9.49773 -11.7567 8.91712e-24)
(10.4848 -15.2347 4.56895e-23)
(12.3041 -17.6544 0)
(14.1662 -21.4699 0)
(13.3417 -29.3765 1.23607e-23)
(11.3882 -36.8932 -9.30887e-24)
(10.4619 -41.5019 0)
(19.2802 13.3842 0)
(13.1297 10.2346 -4.12136e-24)
(14.0963 3.71171 0)
(11.2995 -3.53755 0)
(10.6483 -10.816 -8.90286e-24)
(10.0267 -15.5242 4.74225e-23)
(11.6197 -18.0674 5.61905e-23)
(12.028 -20.9188 0)
(12.647 -25.7256 0)
(10.7636 -31.7562 -2.4316e-24)
(7.18088 -37.3442 0)
(6.01387 -40.9207 0)
(21.3816 15.4591 -8.59329e-24)
(16.8977 11.4445 -8.12197e-24)
(19.2799 2.79577 0)
(16.9502 -5.0714 2.74849e-25)
(16.7653 -13.0032 4.5386e-24)
(14.3248 -18.3756 3.89922e-23)
(14.4964 -22.3129 -6.79495e-24)
(13.4972 -25.1368 0)
(13.2387 -27.923 0)
(10.4484 -31.0987 1.86415e-23)
(5.37227 -34.7017 1.66554e-24)
(0.414175 -36.5947 6.11887e-23)
(24.0028 14.7735 2.85089e-24)
(22.5733 8.33652 8.20576e-24)
(25.9863 -1.66091 0)
(23.1736 -8.86402 3.80095e-23)
(22.4581 -16.3924 -3.45227e-23)
(18.975 -20.8006 8.15224e-23)
(17.8978 -23.896 2.87294e-23)
(15.732 -25.5129 0)
(13.9584 -27.6524 0)
(11.0742 -29.426 2.24631e-23)
(6.86848 -30.6008 -3.61617e-23)
(0.790964 -30.4718 0)
(25.5882 11.2009 -5.1468e-24)
(25.524 5.05023 1.74732e-24)
(29.128 -2.25719 -4.53927e-24)
(26.984 -7.87064 4.27732e-23)
(25.6936 -15.0231 -3.84866e-23)
(21.5425 -19.3968 -6.33095e-23)
(19.1822 -23.0749 5.33483e-23)
(16.5548 -24.8621 -4.63256e-23)
(14.845 -26.4323 0)
(12.5678 -27.1267 -4.63134e-23)
(9.87265 -27.2466 -7.47797e-23)
(5.06229 -27.1915 3.05486e-25)
(27.3196 9.11603 4.64008e-24)
(27.9641 2.07928 4.67134e-23)
(31.1783 -5.29458 -4.26973e-23)
(29.3537 -9.73796 4.48907e-23)
(27.6857 -15.247 -1.26545e-23)
(23.4244 -18.4301 -1.03428e-22)
(20.9392 -22.076 1.07048e-22)
(18.3478 -23.9065 -2.65365e-23)
(16.7034 -26.0122 -5.11968e-23)
(14.7275 -27.0445 4.10747e-28)
(13.1799 -27.7167 -8.54657e-23)
(10.8462 -28.4841 -2.11122e-23)
(28.9886 4.67859 -1.07589e-23)
(31.4693 -1.69552 -1.23891e-28)
(34.5659 -6.23199 1.83639e-28)
(34.4471 -8.88638 0)
(32.5955 -13.6279 1.76086e-24)
(29.8096 -18.4204 -9.84346e-23)
(26.5536 -23.5395 -2.62987e-23)
(23.9631 -26.8607 -3.16637e-23)
(22.2923 -29.6498 -7.91667e-23)
(20.5025 -31.1643 6.29591e-23)
(18.8237 -31.9509 -3.94335e-23)
(17.0519 -31.2184 1.37185e-23)
(33.9904 0.85794 -2.05728e-23)
(35.8334 -5.31406 -1.71958e-23)
(38.0184 -9.80673 4.98662e-23)
(37.9896 -11.9357 2.83618e-24)
(37.5764 -16.8334 -1.23037e-22)
(35.6542 -21.5539 -1.28469e-22)
(32.6689 -25.9512 -2.62724e-23)
(28.5128 -28.7448 -1.17786e-23)
(25.599 -30.6675 1.80709e-24)
(21.9906 -30.4142 0)
(18.6852 -28.9848 -3.27364e-23)
(14.6158 -23.1323 -4.84353e-23)
(32.0024 -8.45344 -6.89174e-24)
(36.4821 -7.59304 -2.27097e-24)
(38.2809 -9.73195 0)
(38.7189 -11.0133 -9.82555e-23)
(37.7865 -15.4354 -1.19182e-22)
(35.1838 -19.2636 -9.13564e-29)
(31.84 -22.3728 -1.03614e-22)
(25.965 -23.8378 3.0627e-24)
(20.2338 -23.4273 4.8541e-24)
(15.301 -20.5119 1.87398e-23)
(11.2462 -13.5547 0)
(8.26537 -5.47557 2.96511e-23)
(30.3953 -6.81764 -7.15016e-24)
(31.6163 -9.37749 9.70164e-25)
(31.0558 -11.018 0)
(31.9453 -11.7942 -7.49027e-23)
(32.0308 -14.7118 -5.11081e-23)
(28.8889 -16.7348 4.1739e-23)
(25.2051 -17.1443 -1.11053e-22)
(19.7784 -15.5672 3.5352e-24)
(13.4086 -13.0342 4.61991e-23)
(8.30989 -7.70533 0)
(5.62601 -1.95131 -2.51625e-23)
(4.93877 2.51025 5.69216e-23)
(14.5433 -37.4114 -9.53885e-23)
(20.6943 -39.3966 -9.00127e-24)
(22.0033 -42.6435 3.98949e-23)
(23.5601 -42.7269 -1.10487e-23)
(23.4342 -40.7964 -1.67702e-22)
(22.2568 -37.2291 -4.67799e-22)
(20.6955 -31.0916 -2.02991e-22)
(18.209 -23.9733 6.16199e-24)
(16.1466 -15.1147 0)
(11.4809 -7.40315 -1.14066e-23)
(3.80117 -3.56167 -1.18627e-23)
(-6.2812 -8.12093 2.44323e-24)
(16.0637 -40.773 0)
(21.3948 -40.6791 0)
(24.2961 -41.3518 2.87117e-24)
(27.4672 -40.5883 0)
(28.5715 -38.5384 -4.77089e-24)
(29.9641 -35.4686 0)
(30.5767 -31.4777 1.54046e-23)
(30.3156 -26.722 3.40964e-23)
(28.8721 -21.8646 -5.69697e-23)
(21.8692 -18.4459 0)
(-3.54362 -13.3705 -1.70094e-24)
(-14.0961 -14.8115 9.16252e-24)
(11.6203 -43.2711 0)
(15.6267 -44.2509 7.43408e-23)
(19.3668 -43.7121 3.58389e-23)
(25.2395 -41.5028 0)
(29.5655 -37.3581 0)
(31.8246 -34.6791 -5.55867e-23)
(34.719 -30.765 -1.34337e-23)
(34.963 -28.2006 -1.1764e-23)
(34.7638 -25.0098 -2.65315e-23)
(30.4041 -22.0775 0)
(10.0409 -21.2954 0)
(-9.22838 -13.0632 -6.13423e-25)
(6.33756 -41.8051 0)
(10.2716 -41.728 0)
(15.8813 -38.5534 -3.16995e-23)
(22.5751 -34.163 0)
(28.9978 -29.4728 0)
(32.7302 -27.9026 -9.38187e-23)
(35.4506 -23.6542 -1.16998e-22)
(38.1054 -23.2857 5.04825e-24)
(39.1926 -20.4371 0)
(35.1219 -18.2428 0)
(18.2522 -17.7505 3.38066e-24)
(-9.6873 -14.5167 1.67072e-25)
(-0.721584 -36.0021 -1.62851e-22)
(1.08049 -33.2371 3.98683e-24)
(6.61563 -28.1517 8.32967e-23)
(13.988 -23.2802 0)
(21.2529 -19.1062 0)
(27.6918 -19.6242 3.0685e-23)
(32.8575 -16.4457 -8.55082e-23)
(35.8008 -18.6796 -2.30067e-23)
(39.3194 -16.6061 1.68325e-23)
(38.4442 -16.3808 0)
(19.5012 -15.9235 5.13601e-24)
(-12.6793 -18.2873 -1.93129e-24)
(-2.92592 -28.5641 -8.98712e-23)
(-2.44928 -24.9618 4.41285e-23)
(1.39537 -19.0225 -1.97739e-22)
(8.41835 -14.6883 0)
(14.4027 -11.0597 0)
(21.9954 -12.6093 -3.61295e-23)
(27.9269 -11.3033 -1.5992e-22)
(32.5925 -16.1799 4.84311e-23)
(39.4363 -14.9323 -3.87655e-23)
(39.6022 -15.4685 0)
(19.4141 -15.8489 -2.8034e-24)
(-13.2659 -20.9522 1.66884e-24)
(0.135751 -25.8463 -2.14833e-23)
(-1.03458 -21.6585 2.39306e-22)
(1.13515 -15.2328 2.45055e-23)
(5.44431 -11.3092 0)
(10.6194 -8.54914 9.4176e-23)
(16.2352 -10.1886 -1.05518e-22)
(22.2714 -10.9131 1.17695e-22)
(27.8742 -16.3745 6.05368e-23)
(37.8786 -14.6288 -6.81309e-23)
(41.9867 -17.2165 3.53206e-23)
(19.1126 -19.1809 4.25954e-23)
(-16.7724 -19.9915 -2.54471e-24)
(7.02396 -25.8974 1.09623e-23)
(4.80272 -21.0454 6.4392e-23)
(4.31053 -14.4711 -6.20012e-28)
(6.62629 -10.9506 6.46988e-23)
(9.17113 -9.41084 1.08823e-23)
(12.6151 -10.9073 -2.27386e-22)
(17.7052 -12.8616 1.26671e-22)
(23.4328 -18.1355 7.97997e-23)
(35.6115 -17.341 -9.22553e-23)
(40.4311 -24.543 1.27312e-22)
(20.5914 -29.2222 -6.59138e-23)
(-16.4374 -20.5116 -7.73466e-24)
(14.2842 -26.5776 -6.06668e-24)
(11.3896 -19.9681 0)
(8.98174 -13.473 -2.01921e-23)
(6.81569 -10.7583 1.67388e-23)
(7.63023 -8.64785 3.74117e-23)
(8.79958 -9.62979 8.10738e-23)
(11.3762 -10.5587 9.2042e-23)
(18.286 -15.6898 7.26613e-23)
(28.5797 -16.3985 0)
(36.2727 -29.5267 3.58591e-28)
(25.6272 -37.1123 -1.94121e-29)
(-12.8331 -26.2189 -1.37932e-28)
(11.8374 -14.0384 5.06086e-23)
(10.7817 -8.13407 -6.54605e-24)
(8.89968 -5.41428 0)
(7.39504 -3.08883 -2.64727e-23)
(5.22756 -1.06431 7.00858e-24)
(4.6897 -0.969734 1.88477e-23)
(5.288 -1.32758 3.548e-23)
(7.12345 -5.14993 9.85485e-23)
(15.4562 -11.0967 6.15755e-23)
(23.604 -31.8701 -1.22871e-22)
(23.954 -40.0737 1.41369e-22)
(-0.895414 -38.9854 1.61114e-23)
(6.09524 -0.147235 -4.26707e-23)
(4.9481 2.08682 0)
(4.58733 3.47656 3.11242e-24)
(4.44971 3.56206 -4.34026e-23)
(4.3642 2.72812 -1.08895e-24)
(3.672 2.45476 -9.35692e-24)
(2.67233 1.86688 -5.1248e-29)
(2.80639 1.01848 -3.222e-24)
(3.39669 -1.4187 7.87229e-24)
(7.41554 -11.755 0)
(20.185 -20.4475 -2.47112e-23)
(11.4096 -34.9865 6.38395e-24)
(4.47767 5.46165 -5.4013e-23)
(4.06337 6.83369 2.54673e-23)
(2.99685 7.75657 0)
(2.4334 7.49645 1.71212e-30)
(1.94781 7.27109 -2.11824e-24)
(1.87322 6.10795 -3.10163e-23)
(1.86689 5.01627 8.57669e-24)
(0.604122 3.67634 -1.512e-24)
(-0.328086 1.7123 -1.50008e-24)
(-0.758179 -0.514148 -3.3236e-24)
(1.91989 -5.63621 -1.07984e-23)
(-3.90473 -28.7831 6.32937e-24)
(6.76128 -11.0915 0)
(5.38032 -4.21765 6.96641e-24)
(5.35633 -0.223484 6.13221e-24)
(5.66153 4.51111 0)
(6.10376 8.04696 -5.97494e-24)
(6.38727 10.7294 -9.6875e-23)
(6.53604 12.552 -6.40499e-23)
(5.9114 13.1062 3.44385e-23)
(4.89275 12.464 -9.96378e-24)
(2.77221 10.8901 1.00307e-22)
(0.388039 8.28433 -5.77733e-24)
(-2.22721 5.90025 -8.2329e-23)
(14.5909 -15.7497 9.77669e-24)
(12.6187 -8.35651 1.81041e-23)
(11.0876 -7.36664 0)
(10.0732 -3.38387 7.37673e-23)
(8.78318 -1.34704 2.9949e-23)
(6.82843 1.12075 -1.82961e-23)
(4.89867 3.24783 0)
(2.48921 5.30605 1.74655e-23)
(-0.278089 6.94259 0)
(-2.76115 7.83253 0)
(-4.94046 6.61768 0)
(-6.52543 5.33301 0)
(16.7745 -19.4711 -5.82166e-29)
(14.8683 -12.9949 0)
(11.3881 -15.2873 0)
(9.61326 -12.2737 -3.76112e-23)
(5.85101 -12.2119 6.11821e-24)
(3.38195 -9.65755 -3.60363e-23)
(0.49728 -8.53232 -1.92141e-23)
(-2.86308 -5.57735 0)
(-6.46757 -3.51466 0)
(-10.4554 0.154869 1.17039e-22)
(-13.0591 1.87931 1.24736e-22)
(-14.7374 2.1015 0)
(16.4966 -20.8165 7.36681e-27)
(14.3887 -16.6732 2.4778e-26)
(10.4157 -19.3198 0)
(8.67552 -16.0901 0)
(5.09642 -15.9638 -2.75371e-24)
(2.51897 -12.8928 -4.63591e-23)
(-1.04416 -12.4106 -8.32943e-24)
(-5.69493 -10.658 0)
(-10.2117 -10.1045 0)
(-14.279 -7.72943 -1.55836e-23)
(-17.6896 -4.93607 0)
(-18.5512 -3.86811 0)
(15.7761 -22.3173 -6.70268e-24)
(13.5889 -18.3162 -7.06608e-24)
(11.1683 -20.6449 0)
(10.3953 -17.7746 4.16167e-23)
(7.14317 -15.6718 -2.47048e-23)
(4.70203 -11.6085 -7.3792e-23)
(-1.02088 -8.39466 5.79712e-23)
(-7.76767 -8.51573 0)
(-13.1814 -10.4293 0)
(-17.7415 -9.36934 9.46005e-23)
(-20.7732 -8.83035 2.79431e-24)
(-21.1502 -7.48189 -9.96417e-23)
(15.6418 -23.6008 7.12863e-24)
(14.1638 -19.8676 1.07647e-23)
(11.7262 -21.1989 0)
(12.5968 -18.7276 -7.94546e-24)
(11.3007 -15.6399 4.93366e-23)
(8.22845 -9.44318 -1.92168e-22)
(-1.0186 -6.02974 1.5335e-22)
(-11.834 -4.00529 0)
(-17.2481 -8.72338 0)
(-20.8612 -10.3124 -1.07853e-22)
(-23.496 -11.1061 -1.60388e-22)
(-23.5663 -11.257 0)
(15.1024 -25.0701 -1.73207e-23)
(13.79 -23.4258 -1.81818e-23)
(12.136 -24.5888 -3.10332e-23)
(15.3066 -22.4129 3.89069e-24)
(15.4381 -19.4981 5.8025e-23)
(9.90729 -12.7681 2.90933e-22)
(-5.57093 -7.47306 -3.54815e-22)
(-18.4786 -5.6494 1.43212e-22)
(-24.3921 -9.50028 0)
(-26.5925 -10.2148 1.34189e-22)
(-26.6328 -12.4232 -1.25835e-22)
(-24.8933 -12.8494 -7.7142e-23)
(13.1998 -27.4831 -1.39493e-23)
(12.4477 -28.2371 7.01124e-23)
(12.6477 -30.3683 -5.69876e-23)
(16.3232 -30.3903 1.86227e-22)
(16.9927 -30.2388 4.10069e-22)
(7.9544 -24.952 2.12125e-22)
(-12.9469 -17.4644 -1.96873e-22)
(-26.7788 -10.5123 2.82487e-22)
(-29.7862 -13.7836 -2.16889e-23)
(-28.5494 -12.2111 3.84391e-27)
(-26.8883 -14.1898 -2.47966e-22)
(-24.7474 -15.1562 -5.31984e-23)
(8.1172 -29.3176 6.96994e-24)
(8.43593 -32.9025 -2.77311e-28)
(8.19569 -38.2518 1.29699e-27)
(11.7831 -42.7457 0)
(9.48029 -46.9127 2.08454e-22)
(-3.7249 -45.8811 5.68657e-23)
(-23.2482 -33.1696 -2.11362e-23)
(-32.5145 -24.6386 -2.01887e-22)
(-34.2225 -22.9045 -7.72562e-23)
(-31.2876 -18.6343 1.04244e-22)
(-30.5403 -18.5714 -1.03175e-22)
(-31.0175 -18.6734 1.9376e-22)
(4.31419 -32.9895 2.20621e-23)
(2.98863 -36.6987 -1.6832e-23)
(3.32342 -41.8285 1.00861e-22)
(4.28889 -47.4785 1.05285e-22)
(2.84907 -56.6916 -1.13541e-22)
(-7.13491 -60.2099 -2.21886e-23)
(-24.6167 -49.3217 -2.89824e-23)
(-33.9699 -37.1505 -1.25732e-22)
(-37.1528 -34.8681 -1.15217e-22)
(-34.6534 -28.4605 0)
(-35.6146 -25.7345 6.06548e-23)
(-35.9333 -23.0258 2.95757e-22)
(-4.80346 -32.8463 1.39384e-23)
(-1.14847 -36.2088 -1.26494e-24)
(-1.39835 -39.5242 0)
(-1.32699 -47.6593 -2.06889e-22)
(-6.19886 -58.0663 -2.56587e-22)
(-15.2268 -65.2712 1.43313e-27)
(-25.7271 -61.5494 -1.61716e-22)
(-34.1667 -43.426 1.35422e-22)
(-35.5478 -37.6061 9.53077e-24)
(-33.8551 -34.1091 -5.87381e-23)
(-35.0144 -28.6043 0)
(-35.4835 -25.0904 -2.93806e-22)
(-4.10402 -30.8508 9.66295e-24)
(-1.58304 -37.7238 3.28265e-24)
(-4.57895 -38.2854 0)
(-11.5038 -41.9291 -3.16015e-22)
(-13.4239 -55.3709 -7.54741e-23)
(-20.0668 -65.8536 1.54867e-22)
(-24.3477 -69.1257 1.13533e-22)
(-27.8231 -55.0611 2.36649e-22)
(-30.2653 -37.4531 3.44726e-22)
(-30.6524 -33.6811 0)
(-30.8112 -28.988 2.85034e-22)
(-33.0756 -26.3659 -5.27703e-22)
(-4.67159 2.70006 5.40029e-23)
(-5.62045 -0.121501 -1.7571e-24)
(-6.38551 -2.10782 -1.8749e-23)
(-7.1866 -2.91859 -3.83153e-24)
(-8.86935 -2.81026 4.13666e-24)
(-9.54264 -4.00785 1.22157e-23)
(-9.01937 -3.11832 -1.76436e-24)
(-11.2481 -0.277228 -1.67333e-24)
(-13.2214 -0.540148 0)
(-13.8854 -1.54123 1.4834e-24)
(-13.6786 -0.353477 1.81086e-24)
(-14.1716 -0.067665 -1.95103e-25)
(-7.66844 2.8791 0)
(-7.99095 0.0592065 0)
(-9.08676 -2.01625 -2.41764e-24)
(-11.3616 -2.64975 0)
(-12.2588 -2.90707 3.6664e-24)
(-12.1438 -4.73942 0)
(-13.0441 -4.13953 -4.91982e-24)
(-14.2435 -1.18081 -7.68729e-25)
(-14.2725 -0.774994 3.40205e-24)
(-15.1182 -1.8519 0)
(-15.6112 -2.20907 1.26972e-24)
(-13.9454 -1.64992 8.49976e-25)
(-14.808 1.8281 0)
(-14.295 0.809646 -5.74155e-23)
(-14.654 -0.586393 -3.58144e-23)
(-14.1336 -1.75291 0)
(-13.4697 -3.30829 0)
(-12.741 -3.96094 -1.36732e-23)
(-13.1571 -3.67117 -1.33024e-23)
(-13.321 -1.38806 3.56136e-24)
(-13.5665 0.627971 7.61379e-26)
(-13.7848 0.269378 0)
(-14.9815 -2.65621 0)
(-15.219 -0.242516 0)
(-17.4899 -3.76433 0)
(-16.4166 -3.37512 0)
(-15.6834 -3.12021 1.85686e-23)
(-15.154 -3.5295 0)
(-14.0215 -3.30473 0)
(-11.5639 -3.93686 -7.4255e-24)
(-10.3817 -2.67585 -7.70269e-25)
(-10.2078 -1.0051 2.95269e-24)
(-11.3344 0.668702 0)
(-13.6143 1.26851 0)
(-14.7609 0.864539 -1.93143e-24)
(-21.2993 2.35646 0)
(-20.5563 -7.54861 2.79868e-23)
(-19.7986 -6.8583 3.18128e-24)
(-17.7764 -5.08527 -3.31493e-23)
(-14.551 -4.23532 0)
(-10.0196 -6.64809 0)
(-7.43303 -7.31701 1.15586e-23)
(-7.04147 -5.33586 2.18459e-23)
(-8.98427 -0.706465 2.24152e-23)
(-12.6028 4.1162 2.49568e-23)
(-15.242 4.13941 0)
(-19.2896 6.70233 -3.63802e-25)
(-22.5458 -0.511245 -1.05642e-24)
(-22.2347 -10.7205 -6.29542e-23)
(-18.4848 -10.6493 1.92521e-23)
(-14.7446 -10.9927 -2.34573e-23)
(-13.2008 -10.669 0)
(-14.307 -9.38539 0)
(-14.6678 -8.92985 6.87278e-23)
(-15.2016 -5.3357 7.39142e-23)
(-12.8097 1.9178 -1.1585e-23)
(-18.3992 5.14553 1.24434e-23)
(-22.3321 6.88912 0)
(-21.2974 9.66539 3.09874e-24)
(-18.2987 -0.447604 4.86931e-24)
(-21.62 -14.7782 4.55124e-23)
(-20.2279 -15.8674 1.68134e-22)
(-24.9557 -15.657 8.25274e-23)
(-30.3499 -15.7892 0)
(-31.6125 -18.1647 2.28371e-23)
(-27.3877 -18.8202 -3.31768e-23)
(-25.514 -19.0284 3.74567e-23)
(-18.6318 -2.6317 7.44469e-24)
(-20.7932 11.1016 2.0645e-24)
(-21.0825 5.54935 -4.7794e-24)
(-21.5424 3.94928 -2.54875e-24)
(-19.2142 1.10962 -1.98466e-24)
(-24.5445 -16.1162 3.59077e-23)
(-30.4326 -16.0231 9.96741e-23)
(-35.419 -15.8518 5.2002e-28)
(-36.6391 -17.4911 2.79737e-23)
(-32.9515 -20.1704 1.19779e-23)
(-32.632 -23.2876 -3.19142e-23)
(-29.2158 -23.7745 1.08698e-22)
(-29.1519 -17.4696 -3.24215e-23)
(-16.1124 7.30864 1.54721e-24)
(-17.2097 8.62915 -1.82125e-23)
(-23.5169 6.40355 4.04115e-24)
(-22.2603 6.88732 2.77517e-24)
(-34.2194 -19.343 -1.99011e-22)
(-37.6928 -19.2579 0)
(-38.9363 -18.5825 -4.45231e-23)
(-39.1096 -21.248 2.35283e-23)
(-38.2365 -22.4847 4.60053e-24)
(-36.4465 -25.3124 -3.93728e-24)
(-31.5718 -28.7082 -1.56926e-23)
(-28.6782 -27.9802 -3.75915e-23)
(-19.917 -7.63447 0)
(-19.8148 14.6063 1.69163e-28)
(-28.0565 9.77913 1.33381e-28)
(-25.5924 8.51359 -8.94766e-32)
(-36.5162 -21.5138 -2.43367e-22)
(-38.6832 -18.9739 -5.80252e-24)
(-40.2189 -17.557 0)
(-39.9125 -18.4252 2.47976e-23)
(-38.7253 -22.5437 -8.37192e-24)
(-36.0791 -29.4356 -6.50372e-24)
(-35.964 -32.9519 3.34796e-23)
(-37.9216 -34.2602 4.69203e-23)
(-39.0979 -19.3268 -9.14276e-23)
(-26.0194 14.3571 -5.53282e-23)
(-35.1978 11.8606 1.56501e-23)
(-28.438 5.84065 2.22244e-24)
(-35.2141 -21.1307 2.47823e-22)
(-36.9356 -18.1082 0)
(-37.1606 -16.2619 -2.8077e-23)
(-33.2058 -16.4905 9.49191e-23)
(-31.1493 -17.2377 -1.72884e-23)
(-31.3419 -19.607 8.04782e-23)
(-37.9559 -27.3788 1.80178e-28)
(-43.2046 -35.0636 2.63033e-22)
(-51.7306 -30.3668 4.90088e-22)
(-44.6048 2.38067 0)
(-36.2511 10.1167 -5.17034e-24)
(-31.079 7.4884 -2.66819e-24)
(-32.0425 -21.3058 4.04861e-22)
(-33.2259 -16.652 -1.38835e-22)
(-29.3797 -13.9849 0)
(-26.4546 -14.2315 -1.5531e-28)
(-24.8188 -14.326 -1.41671e-23)
(-24.0997 -15.1267 1.25176e-22)
(-25.9611 -15.0313 -6.27331e-23)
(-34.3248 -18.8451 2.62763e-22)
(-50.5915 -24.6298 6.67943e-22)
(-53.4207 -17.198 -7.95146e-23)
(-38.601 -6.39802 -1.15036e-23)
(-35.6114 5.32264 -6.3928e-24)
(-13.5783 1.66081 -5.44015e-25)
(-13.0792 1.98725 -1.98602e-24)
(-13.0923 3.00745 -1.94186e-24)
(-12.6423 3.25966 0)
(-12.3093 4.08112 1.75692e-24)
(-11.829 4.86993 1.54586e-23)
(-11.7145 5.95535 3.00054e-23)
(-11.4714 6.4794 1.39229e-23)
(-11.4995 7.52211 4.89369e-24)
(-11.696 8.48492 2.14015e-23)
(-12.2013 9.53704 8.71761e-24)
(-11.4015 12.3334 -3.42632e-23)
(-15.3202 -0.189371 8.09067e-25)
(-14.796 0.467348 -1.32613e-24)
(-15.2871 1.72311 0)
(-14.802 2.43077 -5.83342e-24)
(-15.1424 4.04417 6.47135e-25)
(-14.7027 5.58177 4.65377e-24)
(-14.9994 7.11379 0)
(-14.8721 8.99558 -6.00763e-24)
(-14.5948 11.6989 0)
(-14.6383 14.2999 0)
(-14.998 18.4095 0)
(-14.8269 25.23 0)
(-16.635 1.63513 -7.88489e-31)
(-16.2508 2.13448 0)
(-16.2657 3.49204 0)
(-15.7252 4.25674 -1.89632e-24)
(-15.6848 6.10424 -2.61636e-24)
(-15.5929 7.57072 1.22755e-23)
(-15.532 10.0428 2.05297e-23)
(-16.0176 11.8787 0)
(-15.9384 14.7458 0)
(-14.4151 18.5109 2.07601e-23)
(-13.8097 24.2021 3.93637e-23)
(-13.3186 29.0181 0)
(-18.1331 0.305582 -7.60704e-25)
(-17.4796 0.8346 2.72585e-24)
(-17.6878 2.1853 0)
(-16.8951 3.30223 0)
(-16.5462 5.92466 1.6783e-24)
(-16.0347 8.31738 1.61799e-23)
(-16.153 11.2635 2.48604e-23)
(-16.2423 14.138 0)
(-16.9936 17.4112 0)
(-15.2377 21.7994 -1.3755e-23)
(-12.6901 28.0883 0)
(-12.1864 30.2781 0)
(-20.0915 0.754732 1.4939e-24)
(-19.5416 1.84011 2.9529e-24)
(-19.3191 3.40616 0)
(-18.3002 4.36714 1.19789e-23)
(-17.3082 7.30008 6.75191e-26)
(-16.3071 9.8804 3.2091e-24)
(-16.2733 14.0542 2.04005e-24)
(-16.4575 17.3539 0)
(-17.1629 20.4502 0)
(-15.967 24.2195 3.64889e-23)
(-12.6497 28.1235 1.90451e-24)
(-10.4967 29.7855 -2.41787e-23)
(-21.1954 1.23581 2.86955e-24)
(-21.4353 0.960217 1.35232e-24)
(-20.2672 1.8325 0)
(-19.5013 2.9374 4.57929e-24)
(-18.3553 6.29234 6.9747e-24)
(-17.1338 10.8768 -4.20552e-24)
(-17.0642 15.9451 3.25063e-23)
(-16.848 19.6112 0)
(-17.5222 22.4464 0)
(-16.6308 24.4437 -3.05447e-24)
(-13.0882 27.0515 -4.85793e-23)
(-10.1056 27.7534 0)
(-22.2908 0.807341 -5.98097e-25)
(-22.8348 0.842929 5.51891e-24)
(-22.295 1.65163 -8.97054e-24)
(-21.7914 3.69455 1.4008e-23)
(-21.2151 8.07594 -3.11412e-25)
(-20.7209 13.8612 1.09129e-23)
(-20.2058 19.9515 2.69825e-24)
(-19.5744 23.4451 -1.94555e-23)
(-18.8307 24.7207 0)
(-17.9099 25.0565 1.93545e-23)
(-15.0671 25.7593 -6.1525e-23)
(-11.1978 25.7854 -1.48741e-23)
(-25.033 1.33725 5.33536e-25)
(-25.9045 1.67055 3.6045e-23)
(-27.3172 2.79414 -3.6967e-23)
(-28.4027 5.74939 5.85692e-23)
(-28.8671 12.3443 3.0789e-23)
(-28.1931 19.2487 -4.78706e-23)
(-25.7995 23.5318 6.94342e-23)
(-23.8165 24.8625 -2.22636e-24)
(-22.2678 24.9078 -3.29622e-23)
(-20.2409 24.3177 4.89165e-28)
(-17.8652 24.6024 -8.27881e-23)
(-14.4261 24.0575 -4.9177e-24)
(-26.0789 2.93416 7.9018e-24)
(-28.7479 3.63092 2.95588e-31)
(-30.9227 5.95847 1.46875e-28)
(-34.0746 10.1712 0)
(-35.1029 16.178 5.75076e-24)
(-34.4571 20.3697 -4.24936e-23)
(-30.6074 23.2129 -1.38653e-23)
(-26.2262 24.5601 -1.57616e-23)
(-23.2592 24.0787 -2.46018e-23)
(-21.2708 23.3133 2.56658e-23)
(-19.1715 23.1729 -2.7367e-23)
(-17.0934 22.2436 4.99686e-23)
(-28.3668 4.74004 7.16179e-24)
(-29.5439 6.71108 -2.09853e-23)
(-29.8346 9.49899 3.39696e-23)
(-32.6982 13.1697 -4.67532e-24)
(-33.0756 16.9667 -4.82077e-23)
(-32.9242 18.9824 -3.0936e-23)
(-31.0403 20.0187 -9.16249e-24)
(-27.6328 20.7397 -6.3584e-24)
(-24.0294 21.1277 -2.54264e-24)
(-21.3539 21.2424 0)
(-19.0751 21.1548 -2.46209e-24)
(-17.4041 19.4773 2.45846e-23)
(-28.5872 5.39535 1.75624e-24)
(-29.6997 5.10332 3.17441e-24)
(-28.0404 8.76088 0)
(-28.3422 12.1531 -4.83017e-23)
(-27.1582 14.3437 -2.83636e-23)
(-25.8132 15.3667 -8.72614e-29)
(-23.9054 15.6837 -9.61418e-24)
(-21.4621 16.429 9.08631e-24)
(-18.4655 16.6428 6.04345e-25)
(-16.2761 16.6049 5.24599e-24)
(-14.5069 15.6386 0)
(-13.191 13.3009 -1.26212e-23)
(-27.6164 5.61489 5.47096e-24)
(-27.6721 6.5514 3.2679e-24)
(-25.1628 9.0944 0)
(-22.9878 11.9345 -6.03067e-23)
(-21.0466 12.5166 -1.2702e-23)
(-19.8338 11.4832 -3.34519e-25)
(-18.66 10.3238 1.68717e-23)
(-17.5239 10.3269 5.48094e-24)
(-15.5328 11.2852 1.28999e-23)
(-13.5816 12.2871 0)
(-12.309 11.886 3.56416e-24)
(-11.6701 10.8921 -1.77605e-23)
(-8.84179 20.3339 2.899e-23)