/*--------------------------------*- C++ -*----------------------------------*\
| =========                 |                                                 |
| \\      /  F ield         | OpenFOAM: The Open Source CFD Toolbox           |
|  \\    /   O peration     | Version:  2212                                  |
|   \\  /    A nd           | Website:  www.openfoam.com                      |
|    \\/     M anipulation  |                                                 |
\*---------------------------------------------------------------------------*/
FoamFile
{
    version     2.0;
    format      ascii;
    arch        "LSB;label=32;scalar=64";
    class       volVectorField;
    location    "1.5";
    object      U.oil;
}
// * * * * * * * * * * * * * * * * * * * * * * * * * * * * * * * * * * * * * //

dimensions      [0 1 -1 0 0 0 0];

internalField   nonuniform List<vector> 
3312
(
(0.459717 13.0237 0)
(0.434684 11.0081 -1.18548e-25)
(1.07289 9.72364 -6.9628e-26)
(1.69158 8.436 0)
(2.06281 7.90946 2.12252e-26)
(2.31544 7.35478 -1.653e-25)
(2.35108 6.53317 8.73154e-25)
(2.21779 6.48072 1.84043e-24)
(2.57435 7.35857 -9.45131e-26)
(3.82888 7.70387 6.8421e-24)
(10.7465 7.36661 -4.9507e-25)
(26.9581 6.09572 1.16251e-24)
(-3.85532 14.9445 3.45649e-25)
(-3.44556 12.6436 4.88408e-25)
(-1.38147 11.4676 0)
(0.529312 10.1523 9.2193e-25)
(2.03374 9.94107 3.52435e-25)
(2.60229 10.6717 3.50703e-25)
(4.38188 10.8601 0)
(8.55107 9.4847 -4.04461e-25)
(12.6345 9.94166 0)
(18.353 9.85465 0)
(29.8892 9.28725 0)
(36.1369 9.45879 0)
(-5.02372 16.9374 0)
(-4.43547 14.4033 0)
(-1.3268 13.4174 0)
(1.81979 11.9676 -5.05151e-25)
(5.132 11.6538 -2.09256e-25)
(7.12215 12.1498 1.66902e-24)
(9.54326 13.6832 9.90637e-25)
(12.6658 12.8344 0)
(16.991 12.0996 0)
(25.5259 9.09276 4.39443e-25)
(35.4738 6.93505 2.25831e-25)
(38.3014 7.02093 0)
(-7.59705 18.9799 0)
(-6.64935 16.1859 1.63442e-25)
(-2.47403 15.6624 0)
(2.07291 13.5545 0)
(6.25367 13.5519 2.73125e-25)
(8.92379 13.763 4.7723e-24)
(11.9723 15.048 2.67678e-24)
(15.39 13.6343 0)
(20.1819 11.7547 0)
(28.5502 7.52641 -3.25496e-24)
(36.3089 4.37519 0)
(37.9478 4.51672 0)
(-8.07175 20.7891 -8.50812e-25)
(-6.67219 18.651 -9.42721e-25)
(-1.97185 18.4194 0)
(3.64383 15.6387 4.47364e-25)
(9.38622 14.8514 1.23952e-24)
(12.8354 14.8494 6.77193e-24)
(14.8073 15.9806 -3.4119e-24)
(16.4886 15.0836 0)
(21.0335 12.3469 0)
(28.7103 7.80901 2.57073e-24)
(34.7138 2.32698 3.83022e-25)
(36.3845 1.08919 3.24525e-24)
(-8.47069 22.8298 1.01322e-24)
(-6.77217 22.1565 1.81162e-24)
(-2.08061 21.7842 0)
(4.19001 19.7912 2.73356e-24)
(10.7774 17.4413 -3.41653e-24)
(14.2892 16.9594 1.58632e-23)
(15.5646 16.9405 1.46199e-24)
(17.329 16.1727 0)
(22.7825 13.254 0)
(28.297 8.95231 3.78258e-24)
(32.606 2.70336 -1.1628e-23)
(33.4097 -0.0440818 0)
(-6.31905 24.8326 -1.01075e-24)
(-5.33278 25.3488 -1.11e-24)
(-0.524158 26.0715 -2.44667e-24)
(5.73784 23.8488 7.02663e-24)
(12.4271 20.788 -6.82467e-24)
(16.1302 19.292 -1.53902e-23)
(17.1367 18.5764 1.41372e-23)
(19.3962 17.6022 -1.12073e-23)
(23.7153 14.456 0)
(27.1456 10.5538 -1.56164e-23)
(29.7364 4.68209 -2.54361e-23)
(30.1627 -0.0694628 3.94798e-24)
(-4.18707 26.8492 1.7881e-24)
(-3.0544 28.6414 1.26149e-23)
(0.507439 29.8826 -1.17289e-23)
(5.97773 29.0465 1.32519e-23)
(12.9275 25.3263 -9.19346e-24)
(16.6596 23.0449 -3.65868e-23)
(18.3422 21.6346 3.7502e-23)
(20.3824 19.9824 -5.9538e-24)
(23.6325 16.1893 -9.69934e-24)
(26.1208 12.0332 1.12851e-28)
(27.4654 7.39986 -1.91382e-23)
(27.8031 2.66332 2.96641e-24)
(-0.608843 27.9007 2.77086e-24)
(-0.998557 31.0235 -2.77567e-29)
(2.71212 32.3779 7.85074e-29)
(7.62896 33.5749 0)
(13.6983 30.1796 -3.66757e-24)
(17.7525 26.6874 -1.82375e-23)
(16.7285 22.1237 -1.40732e-24)
(14.0916 18.7343 -6.36885e-25)
(14.681 15.713 -9.40142e-25)
(20.4443 13.4048 2.64917e-24)
(25.9419 8.67878 -8.68228e-24)
(26.3566 3.55282 1.3087e-23)
(2.20004 29.5664 2.86565e-24)
(2.27588 32.1435 -3.69988e-24)
(5.86577 33.8841 1.03619e-23)
(10.8437 31.4027 1.10022e-25)
(10.9124 25.2837 -1.12351e-24)
(8.45575 21.3179 -5.25305e-25)
(6.17432 18.4497 -9.54457e-26)
(4.44199 16.3997 -4.78196e-26)
(4.49203 14.2761 -4.92072e-26)
(6.31921 12.2717 0)
(8.25547 10.1604 -5.98605e-27)
(11.7532 7.94036 1.34675e-25)
(5.28489 27.861 1.62648e-24)
(8.09265 27.2812 2.30941e-26)
(5.36187 19.7957 0)
(3.13108 16.0518 -2.86409e-25)
(2.00178 14.8565 -2.80133e-25)
(1.26621 14.0727 -4.27013e-31)
(0.823252 13.3785 -3.02598e-25)
(0.29732 12.6405 5.22195e-26)
(-0.109215 11.3936 2.34581e-26)
(0.489292 10.0242 3.49205e-26)
(1.97487 8.96834 0)
(3.74789 7.9101 -2.6398e-25)
(0.899516 13.0617 5.38043e-27)
(0.936909 12.0243 7.14974e-27)
(0.426761 11.0964 0)
(-0.3237 9.93088 -4.07264e-25)
(-0.687205 8.91084 -2.92512e-25)
(-0.637021 8.10709 1.60841e-25)
(-0.473755 7.47576 -5.3899e-25)
(-0.366339 6.93944 9.5155e-26)
(-0.341036 6.47038 6.86342e-25)
(-0.371934 5.97961 0)
(-0.0707753 5.4164 2.89977e-25)
(1.14495 4.90605 -2.07223e-25)
(36.0281 11.6169 -1.47183e-23)
(36.2922 13.9989 -9.8838e-25)
(36.9908 14.0775 8.33267e-24)
(36.0381 13.8952 -1.48392e-24)
(34.466 12.3015 -7.34331e-25)
(32.015 10.7228 -9.68171e-24)
(29.2731 8.88663 -6.14548e-24)
(25.7226 7.4368 -1.05388e-25)
(21.5031 5.9367 0)
(17.851 5.18009 -1.57801e-25)
(13.2885 3.98774 -3.9886e-25)
(12.1576 -3.85215 -7.55601e-26)
(37.4402 12.3007 0)
(35.8336 14.3861 0)
(35.5285 15.0009 -1.01584e-24)
(34.2077 14.5866 0)
(32.6753 12.6069 4.51063e-25)
(30.6627 10.1342 0)
(28.1522 7.77689 -2.70388e-26)
(25.2963 5.6571 2.09877e-25)
(22.1537 4.4801 -2.77896e-25)
(19.2048 4.05207 0)
(16.1542 3.61039 -4.80865e-25)
(15.3553 -3.61856 -1.66264e-27)
(38.5294 9.80701 0)
(37.3148 10.9568 2.16358e-24)
(36.6924 11.3866 1.80637e-24)
(34.955 11.7167 0)
(33.0228 10.6865 0)
(31.0744 8.55774 1.48948e-25)
(28.4994 6.36939 2.35267e-25)
(25.3367 4.67406 -1.06487e-25)
(22.2471 3.91297 3.97477e-26)
(19.5275 3.45587 0)
(16.5808 1.90728 0)
(16.2997 -3.77289 2.97654e-33)
(37.9215 6.5884 0)
(36.4039 8.74884 0)
(34.7711 9.84309 4.06611e-26)
(33.1794 10.6446 0)
(32.0701 10.2995 0)
(30.9535 9.60925 3.49798e-25)
(28.7641 9.69167 2.69486e-26)
(25.6762 8.52516 2.96087e-26)
(22.1601 7.34251 0)
(19.7686 6.64034 0)
(18.2634 6.2906 -1.73846e-27)
(16.5543 -1.68013 -7.65379e-27)
(36.1332 1.77667 -8.25134e-24)
(34.6927 3.57484 1.45371e-25)
(33.1067 5.22638 2.13565e-24)
(31.6516 6.51918 0)
(30.8255 7.61391 0)
(29.7686 11.4981 -1.32586e-25)
(28.6043 16.2411 -9.16806e-26)
(27.0407 16.272 -5.4147e-26)
(23.4127 13.4826 -9.46334e-26)
(20.8114 10.0166 0)
(19.0858 7.61221 2.49128e-26)
(16.6187 -1.95309 1.04643e-25)
(32.9005 -0.488196 -7.0194e-24)
(31.5083 0.555271 -2.85255e-25)
(30.3501 2.02667 -6.26828e-24)
(29.6538 3.05312 0)
(29.2606 5.54503 0)
(28.2632 12.0854 5.00453e-25)
(25.7152 21.4111 -1.67628e-24)
(25.0814 23.9601 1.65396e-24)
(23.3833 19.2817 -3.72404e-25)
(21.5998 12.4525 0)
(19.1779 7.313 -1.66498e-25)
(18.4719 2.01124 -4.92365e-26)
(29.5976 -2.09848 -6.56277e-24)
(28.538 -2.8719 1.44695e-23)
(27.868 -2.85613 4.03451e-24)
(27.852 -1.25293 0)
(27.2252 2.60724 1.2778e-24)
(24.8239 8.99505 -2.29822e-24)
(18.0014 14.0156 6.99016e-24)
(16.0117 23.0425 9.56947e-24)
(17.9476 19.9259 -2.35764e-23)
(20.6825 13.208 1.30508e-26)
(19.7862 10.0622 8.13742e-25)
(20.4686 8.65884 3.35146e-25)
(27.3265 -1.03224 -6.11841e-24)
(26.3881 -2.81128 9.97007e-25)
(26.0937 -3.7387 -1.11782e-28)
(25.5995 -2.50134 2.50958e-24)
(23.911 1.20667 3.84726e-24)
(18.8661 5.32403 -5.59317e-24)
(13.327 8.71546 1.48161e-23)
(10.9658 16.4445 2.19209e-23)
(15.7805 22.7574 -4.12009e-24)
(19.2657 12.0392 2.20743e-24)
(20.2134 11.6844 -9.38143e-25)
(20.7135 11.6068 -5.36798e-25)
(25.6799 -0.243767 -1.26862e-23)
(24.7614 -3.09012 0)
(23.8379 -4.80833 -3.28314e-24)
(21.4379 -4.58474 2.7691e-24)
(18.1253 -2.79653 -1.08357e-24)
(13.4993 0.0625084 1.65964e-24)
(9.8037 2.74763 1.02955e-23)
(6.7698 9.34115 8.16434e-24)
(12.7 14.503 0)
(15.5895 13.506 -1.79383e-29)
(15.7089 10.316 -9.75679e-30)
(20.1929 12.14 -1.41263e-32)
(21.9623 0.571834 -1.96288e-24)
(21.1496 -3.65973 3.41292e-24)
(19.3735 -5.27139 0)
(16.4562 -5.01272 2.20084e-24)
(13.7435 -3.75338 -7.1207e-25)
(9.05421 -1.1014 1.90628e-24)
(4.44717 0.84803 1.26576e-23)
(3.74381 6.03858 1.07114e-23)
(10.0266 6.51299 1.50181e-24)
(12.3468 4.09893 -3.10924e-26)
(12.0877 3.93047 1.23566e-24)
(17.9083 10.7941 0)
(5.67445 6.53703 -1.0333e-25)
(8.6259 4.95757 0)
(13.4377 2.05694 -2.56675e-23)
(11.0397 -2.37993 4.67656e-23)
(5.66146 -3.434 5.45328e-24)
(1.13956 -3.26835 4.46407e-24)
(3.38153 -4.74382 -3.22095e-30)
(4.34353 -5.12793 -1.1076e-25)
(7.0967 -3.96307 2.68223e-25)
(5.97017 -0.925387 0)
(8.38537 1.75595 -1.12802e-24)
(14.9434 7.05382 -1.14162e-24)
(2.49709 4.48814 -6.1214e-25)
(5.20788 2.97913 1.11173e-24)
(8.78513 -2.65192 0)
(7.59665 -4.93507 -4.36334e-31)
(6.13871 -5.97796 9.28706e-26)
(5.11317 -6.01609 1.20406e-24)
(4.63811 -5.16865 -2.34865e-25)
(4.12416 -4.42184 7.442e-25)
(4.26146 -3.50098 2.07931e-24)
(4.52935 -1.96998 -4.98923e-25)
(8.80148 1.83376 -2.97015e-24)
(15.5788 -1.69156 -3.70273e-24)
(12.6877 1.19805 1.4913e-26)
(10.1126 0.166486 2.16871e-26)
(8.77318 -0.467669 5.96284e-26)
(6.87641 -1.72911 0)
(6.91514 -3.28905 -3.21017e-26)
(7.39692 -4.72974 2.69141e-24)
(8.69061 -6.18481 5.54599e-24)
(9.76295 -7.50311 1.50648e-24)
(11.0422 -7.80287 8.18253e-25)
(11.792 -8.70755 3.3999e-24)
(12.2419 -13.0834 6.70314e-25)
(9.02882 -26.9925 1.38935e-24)
(15.4514 6.22641 4.10532e-25)
(11.2844 4.56433 1.03556e-24)
(10.1158 2.83665 0)
(7.65277 -0.874394 1.30509e-24)
(7.62337 -4.41901 -3.68779e-24)
(7.9952 -6.85203 -6.7e-25)
(9.56985 -8.73447 0)
(11.9863 -10.5285 -4.24544e-25)
(13.5576 -13.5374 0)
(13.2192 -20.9577 0)
(12.6491 -32.2407 0)
(12.178 -37.2316 0)
(17.7231 9.68905 0)
(12.0562 7.97908 0)
(11.4925 3.82073 0)
(8.89159 -2.13291 4.49811e-24)
(8.05144 -7.41168 2.63137e-24)
(9.03603 -10.9905 2.50757e-24)
(9.83543 -14.5004 1.15592e-23)
(11.5911 -16.9872 0)
(13.3436 -20.8517 0)
(12.5521 -28.687 1.85757e-24)
(10.4731 -36.5348 -1.16532e-24)
(9.64197 -39.7713 0)
(20.1122 13.3801 0)
(13.958 10.439 -1.34459e-24)
(14.675 4.08631 0)
(11.4771 -2.93414 0)
(10.3226 -10.1097 -2.85938e-24)
(9.48666 -14.8633 1.57248e-23)
(10.9968 -17.4826 1.7551e-23)
(11.2853 -20.2834 0)
(11.641 -24.8833 0)
(9.96569 -30.8904 -2.87457e-25)
(7.12184 -36.9083 0)
(5.87616 -40.0691 0)
(22.1465 14.9517 -2.56174e-24)
(17.7493 11.056 -2.74803e-24)
(19.7356 2.44863 0)
(16.706 -5.12932 5.99896e-26)
(16.0913 -12.7534 1.42359e-24)
(13.539 -18.0497 1.29093e-23)
(13.7322 -21.9823 -2.23397e-24)
(12.6467 -24.7306 0)
(11.8364 -27.2974 0)
(9.2618 -30.1774 1.99463e-24)
(5.04965 -34.5699 1.17246e-25)
(0.910356 -37.7849 5.82976e-24)
(24.5718 13.8558 9.12247e-25)
(23.1625 7.39669 2.95751e-24)
(26.0377 -2.63861 0)
(22.7916 -9.69225 1.28403e-23)
(21.6883 -16.91 -1.17265e-23)
(18.085 -21.0742 2.77897e-23)
(17.0311 -24.0473 9.5863e-24)
(14.8411 -25.5904 0)
(12.6471 -27.4636 0)
(9.50257 -28.785 2.44566e-24)
(5.61754 -30.0162 -2.76494e-24)
(0.24509 -31.8429 0)
(25.998 10.2241 -1.66359e-24)
(25.9204 4.04304 6.21082e-25)
(29.1138 -3.29117 -1.59518e-24)
(26.6583 -8.81344 1.48422e-23)
(25.0534 -15.7381 -1.32059e-23)
(20.7908 -19.8751 -2.11083e-23)
(18.4219 -23.3882 1.73051e-23)
(15.7738 -25.073 -1.36725e-23)
(13.7626 -26.5444 0)
(10.9791 -27.1002 -5.72257e-24)
(8.17042 -26.9825 -6.37079e-24)
(3.35302 -27.6136 7.03949e-27)
(27.6736 8.12591 1.5288e-24)
(28.3067 1.07143 1.65655e-23)
(31.1561 -6.30816 -1.48905e-23)
(29.0851 -10.6647 1.54842e-23)
(27.1681 -15.9748 -4.16165e-24)
(22.7868 -18.909 -3.22312e-23)
(20.2616 -22.4126 3.21489e-23)
(17.5963 -24.2434 -7.39843e-24)
(15.6193 -26.3258 -1.08664e-23)
(12.9798 -27.2035 5.56343e-29)
(10.6683 -27.5012 -8.77878e-24)
(7.20835 -28.2491 -2.066e-24)
(29.3092 3.5994 -3.66539e-24)
(31.6915 -2.85663 -4.29407e-29)
(34.3372 -8.04278 4.58743e-29)
(33.831 -11.1992 0)
(31.6762 -15.7683 3.78688e-25)
(28.7808 -20.2159 -2.15286e-23)
(25.5139 -24.9515 -6.46033e-24)
(23.1198 -28.0025 -8.48395e-24)
(21.3188 -30.5512 -1.64233e-23)
(18.8059 -31.147 1.10458e-23)
(16.4369 -31.1834 -8.05284e-24)
(14.2004 -30.3984 2.88841e-24)
(34.0209 -0.160772 -6.94614e-24)
(35.9896 -6.55796 -6.18672e-24)
(37.6939 -11.1533 1.41539e-23)
(37.2652 -13.6026 6.80244e-25)
(36.5661 -18.2614 -3.58905e-23)
(34.3397 -22.8314 -3.78184e-23)
(30.9961 -27.0874 -7.92041e-24)
(25.7924 -29.7849 -9.69089e-25)
(22.2083 -30.1786 6.47438e-26)
(17.4933 -24.7963 0)
(11.3509 -16.8319 -1.91545e-25)
(6.80178 -10.2937 -2.29205e-25)
(11.5301 -6.875 -7.47514e-26)
(28.9443 -9.88233 -2.01985e-25)
(20.9446 -7.58369 0)
(30.9544 -9.05253 -3.06054e-24)
(20.7029 -6.48717 -1.67656e-24)
(16.5933 -5.92376 -6.83804e-31)
(13.2294 -3.71719 -7.02724e-25)
(10.2448 -2.35351 5.13791e-27)
(6.57598 -3.47422 2.85893e-26)
(1.84362 -1.62741 7.80622e-26)
(-0.0250333 -0.508212 0)
(-0.135535 0.104233 9.58e-25)
(2.13658 -3.90253 -5.48492e-25)
(1.22224 -3.8778 2.13699e-26)
(0.503976 -4.02631 0)
(0.874258 -3.74331 2.37328e-25)
(1.94694 -2.7369 -1.03563e-25)
(2.69279 -2.02892 8.0276e-26)
(2.76431 -1.24399 1.18926e-25)
(2.33911 -0.291554 1.65036e-26)
(1.29794 0.23447 -5.57839e-25)
(-0.161138 0.450805 0)
(-0.527114 0.988694 -2.65141e-24)
(-0.262238 1.74609 5.21013e-24)
(10.619 -35.1894 -1.20406e-23)
(11.0637 -35.4035 -9.03624e-25)
(7.26062 -34.7052 2.30154e-24)
(4.70962 -33.164 -3.47493e-25)
(2.45248 -31.4607 -2.72831e-24)
(1.08507 -29.5262 -4.34211e-24)
(-0.760584 -25.5468 -1.20685e-24)
(-0.803458 -20.8439 2.56551e-26)
(-0.157302 -16.586 0)
(0.673348 -14.9031 -3.58535e-26)
(0.420847 -16.5353 -4.99219e-26)
(-3.87732 -16.3675 1.07182e-26)
(11.7691 -38.1392 0)
(10.8383 -36.7003 0)
(6.73645 -34.0923 1.34709e-25)
(3.33448 -31.5439 0)
(0.0793484 -29.8306 -5.16285e-26)
(-1.52785 -29.175 0)
(-1.07357 -26.3335 8.21869e-26)
(2.03159 -22.029 1.5182e-25)
(6.20202 -18.8955 -2.07015e-25)
(8.87284 -18.4679 0)
(7.8985 -17.7356 -1.42175e-27)
(-1.00629 -16.7232 2.02482e-26)
(9.23408 -40.0448 0)
(7.10748 -37.6536 5.07398e-24)
(1.1643 -32.4002 8.02856e-25)
(-2.63674 -31.3653 0)
(-3.63309 -32.0538 0)
(-0.992303 -32.1706 -2.44556e-25)
(5.8677 -30.3615 -5.86201e-26)
(11.1167 -27.7928 -4.89906e-26)
(12.3992 -24.1702 -1.13904e-25)
(15.8872 -18.8966 0)
(17.7321 -14.13 0)
(4.20244 -15.6422 -4.18098e-27)
(3.3733 -39.7034 0)
(-3.10692 -35.9595 0)
(-5.78168 -34.7563 -2.43404e-25)
(-5.55057 -35.0858 0)
(-1.64372 -36.6453 0)
(6.34483 -36.1526 -3.32892e-25)
(14.7909 -33.1029 -4.86582e-25)
(15.072 -28.1265 3.02856e-26)
(15.9854 -25.7006 0)
(17.237 -20.3523 0)
(18.5444 -7.47886 1.68286e-26)
(6.39288 -14.8813 2.20309e-27)
(-1.06576 -37.7458 -1.92694e-23)
(-5.74085 -33.8519 1.11363e-25)
(-7.56564 -32.3996 4.13019e-25)
(-4.41679 -34.7992 0)
(6.96242 -38.4613 0)
(22.1665 -37.1 9.15589e-26)
(25.8667 -27.008 -5.51204e-25)
(24.2798 -23.9533 -2.53622e-25)
(27.8206 -21.1372 2.82227e-25)
(26.8225 -16.2483 0)
(20.289 -7.60308 3.10818e-27)
(8.63265 -12.068 -1.68423e-26)
(-3.51486 -31.8841 -1.32583e-23)
(-5.73402 -30.3098 2.29202e-24)
(-6.08975 -30.877 -8.3166e-25)
(-1.14716 -34.0662 0)
(15.4672 -37.0129 0)
(25.0862 -33.8975 -2.08553e-25)
(23.9871 -19.4918 -3.45767e-24)
(24.7464 -18.1289 1.74709e-24)
(29.4048 -16.4703 -1.88323e-24)
(26.6698 -13.4706 0)
(20.3608 -7.68802 3.33239e-27)
(10.02 -11.6091 1.47789e-26)
(-2.08366 -28.6378 -2.39356e-24)
(-4.82178 -26.0753 1.19186e-23)
(-4.38617 -27.605 1.05977e-25)
(1.14961 -30.7341 0)
(11.6553 -33.9712 3.70954e-25)
(14.4087 -30.8076 -8.32956e-25)
(13.0953 -18.9773 3.06191e-24)
(17.4597 -16.3472 3.50775e-24)
(26.2133 -14.5078 -4.81042e-24)
(24.502 -12.5908 7.23269e-25)
(19.2804 -9.75265 5.2022e-26)
(11.681 -14.567 -2.42896e-26)
(2.3522 -27.8329 1.15319e-24)
(0.141808 -24.4869 5.85209e-24)
(-4.50584 -24.7911 -3.92827e-30)
(-2.34405 -26.937 2.31048e-25)
(4.31498 -30.4997 5.28974e-26)
(7.88791 -27.7043 -1.62262e-24)
(9.17358 -21.5961 2.61825e-24)
(13.7331 -18.6987 4.11768e-24)
(22.4131 -16.2579 -7.25441e-24)
(22.4404 -14.6333 1.87421e-24)
(20.6039 -13.1438 -2.12774e-25)
(13.4985 -16.5642 -1.23424e-25)
(10.7264 -26.7586 -1.28907e-24)
(9.02074 -21.7284 0)
(1.66995 -7.82652 -1.24414e-25)
(0.384699 -8.83944 3.01967e-26)
(-0.019835 -13.3093 1.14094e-25)
(1.61633 -13.6911 2.99874e-25)
(3.20537 -12.0426 6.50813e-25)
(8.09043 -13.48 1.84612e-24)
(15.408 -12.4987 0)
(20.9162 -16.979 4.02812e-30)
(20.0109 -15.6337 1.01612e-30)
(11.7953 -18.4114 -1.23563e-30)
(3.46544 -5.37792 6.47896e-25)
(2.60171 -2.93496 -8.15151e-27)
(2.35883 -0.691997 0)
(2.10537 1.24313 -8.04213e-25)
(1.70936 2.00932 9.20253e-26)
(1.62041 1.78121 2.39969e-25)
(1.80001 0.965577 1.12845e-25)
(2.73149 -1.49011 2.7669e-25)
(4.61305 -2.7625 2.62282e-25)
(9.83772 -12.4584 -1.18465e-24)
(10.4251 -13.4317 6.17134e-25)
(6.07311 -11.6919 1.54591e-25)
(-0.185762 0.407 -1.20664e-24)
(-0.064981 0.70114 0)
(0.397056 1.22609 2.30525e-25)
(0.757105 1.9981 -3.22683e-24)
(1.1044 2.74027 -9.62143e-26)
(1.2176 2.95546 -5.21655e-25)
(1.26134 2.84011 -2.71563e-30)
(1.25147 2.00305 3.44334e-26)
(1.74367 0.335048 3.04121e-25)
(2.49037 -2.07504 0)
(5.37914 -7.96134 -1.24398e-25)
(5.03772 -10.1351 1.0221e-25)
(-0.0538294 2.43866 -7.09664e-24)
(0.117616 3.03017 3.93403e-24)
(0.209543 3.4536 0)
(0.51403 3.61117 3.32751e-31)
(0.887607 3.59273 -3.64897e-25)
(1.2757 3.45966 -5.28591e-24)
(1.40965 3.26376 1.41364e-24)
(1.33478 2.97637 -4.78897e-25)
(0.974736 2.32287 -8.29082e-25)
(0.247011 0.548668 2.37735e-26)
(1.28463 -1.19834 -1.58729e-25)
(-0.860929 -8.00812 3.19294e-26)
(5.94983 -16.3003 0)
(5.52839 -11.4412 1.31658e-25)
(4.97233 -8.39272 1.28725e-25)
(5.16566 -4.65488 0)
(5.53801 -1.66025 -1.50051e-25)
(5.83977 1.06211 -2.87107e-24)
(5.97122 3.52239 -2.3113e-24)
(5.67866 5.44368 1.4904e-24)
(5.32947 6.72003 -4.8722e-25)
(4.23351 7.19247 4.84202e-24)
(3.10684 6.69413 -2.83247e-25)
(1.63479 6.25093 -5.07293e-24)
(10.9457 -21.1174 1.79235e-25)
(9.55994 -12.7484 3.36995e-25)
(7.89109 -12.7562 0)
(7.59336 -10.3066 2.48349e-24)
(7.29211 -7.82997 1.57723e-24)
(5.97917 -4.70081 -1.34495e-24)
(4.75966 -1.61181 0)
(3.20793 1.09889 1.57367e-24)
(1.42017 3.55459 0)
(-0.0344063 5.38056 0)
(-1.22801 5.66913 0)
(-2.37425 5.59325 0)
(11.426 -21.7419 -1.03205e-30)
(9.90872 -16.6573 0)
(5.13846 -18.8657 0)
(4.86271 -16.0767 -1.47882e-24)
(3.15992 -14.9745 4.75587e-25)
(1.55706 -12.2648 -3.02753e-24)
(-0.632938 -10.3551 -1.33384e-24)
(-2.40222 -6.86328 0)
(-4.45371 -4.0032 0)
(-7.14098 -0.0198216 1.07343e-23)
(-8.77173 2.41168 1.30042e-23)
(-10.2864 3.49227 0)
(10.3083 -22.5153 1.77634e-28)
(8.32685 -19.6057 6.07789e-28)
(3.59862 -21.5307 0)
(2.3667 -18.6689 0)
(1.71096 -17.8971 -2.38249e-25)
(0.348056 -14.6943 -3.62009e-24)
(-2.50103 -13.4679 -5.27135e-25)
(-5.3757 -10.6323 0)
(-8.49368 -8.66964 0)
(-11.4754 -6.03646 -1.37165e-24)
(-14.5682 -2.28882 0)
(-15.6783 -1.06021 0)
(8.88817 -23.56 -1.60343e-25)
(7.61202 -20.2666 -1.34146e-25)
(3.32348 -21.9331 0)
(1.2077 -19.7529 1.40728e-24)
(2.37146 -18.6496 -1.57798e-24)
(2.83995 -15.0835 -6.09317e-24)
(-0.65645 -12.5146 5.04741e-24)
(-4.37424 -9.77458 0)
(-9.5854 -9.85511 0)
(-12.9271 -7.36133 4.88891e-24)
(-14.5434 -6.35627 1.01084e-25)
(-14.9817 -4.0185 -3.62314e-24)
(7.79314 -24.0172 2.08809e-25)
(7.22883 -20.2129 2.63978e-25)
(3.59679 -21.5246 0)
(0.756464 -19.8569 -1.94801e-25)
(2.77641 -18.9297 2.06364e-24)
(3.37536 -14.1683 -8.95442e-24)
(-0.999219 -12.7704 5.71588e-24)
(-7.74188 -7.46987 0)
(-12.0945 -9.29596 0)
(-13.0647 -7.27424 -6.59346e-25)
(-14.3698 -5.19347 -7.75052e-25)
(-14.6497 -3.2916 0)
(6.48468 -24.4658 -5.53579e-25)
(6.45889 -21.5337 -5.32074e-25)
(4.04503 -21.5143 -5.29951e-25)
(1.92714 -20.3547 9.31981e-26)
(3.67058 -19.6536 1.58935e-24)
(2.02086 -14.9942 2.45854e-24)
(-4.37146 -12.5695 -1.24783e-24)
(-13.8537 -10.9054 3.99082e-25)
(-17.4039 -8.51822 0)
(-16.1988 -6.60196 3.62207e-25)
(-15.3883 -5.65413 -3.50927e-25)
(-15.8649 -4.66855 -2.0739e-25)
(4.88836 -25.3687 -4.531e-25)
(5.02145 -23.769 2.23974e-24)
(4.08392 -23.397 -1.58663e-24)
(3.6993 -22.3296 4.91394e-24)
(4.2826 -21.6236 6.5189e-24)
(1.81757 -17.2818 6.0564e-25)
(-5.75396 -17.6688 -3.44271e-25)
(-13.9293 -17.7037 9.66611e-25)
(-19.361 -15.1085 -6.83719e-26)
(-18.9987 -10.2825 1.08828e-29)
(-18.4366 -7.89298 -6.61762e-25)
(-18.9242 -7.576 -1.42171e-25)
(1.06905 -25.8686 2.1162e-25)
(2.25493 -26.0459 -9.44333e-30)
(1.32449 -26.9847 5.12819e-29)
(2.37375 -27.8877 0)
(2.358 -24.8756 2.39481e-24)
(-1.00197 -25.4693 1.97801e-25)
(-11.0913 -33.4632 -2.32963e-25)
(-27.6277 -32.0957 -9.69552e-25)
(-31.4445 -19.2621 -2.33579e-25)
(-24.6983 -10.5949 2.95912e-25)
(-22.7516 -9.52859 -3.00548e-25)
(-22.5192 -8.73045 5.85575e-25)
(-1.05911 -28.1657 6.59829e-25)
(-1.51546 -28.6594 -5.66456e-25)
(-2.60756 -30.6295 4.07424e-24)
(-2.54232 -30.8734 4.58505e-24)
(0.352773 -29.8063 -1.34e-24)
(-0.864942 -31.9034 -9.33597e-26)
(-9.84281 -40.8571 -2.20696e-25)
(-25.2599 -38.2832 -6.02416e-25)
(-36.4947 -23.6255 -4.30579e-25)
(-32.1871 -13.1889 0)
(-27.672 -10.0044 2.07339e-25)
(-24.5151 -7.92911 1.02508e-24)
(-8.22436 -27.3999 3.7114e-25)
(-5.91641 -27.1233 -4.49417e-26)
(-6.0405 -27.264 0)
(-5.0329 -25.4635 -6.15195e-24)
(-4.47222 -27.2048 -5.2395e-24)
(-6.62506 -32.6912 9.63335e-30)
(-13.5416 -42.4997 -6.80538e-25)
(-19.7021 -39.907 5.24621e-25)
(-33.1945 -23.6713 3.45283e-26)
(-35.5398 -16.051 -1.82235e-25)
(-32.686 -10.1613 0)
(-28.6665 -6.78719 -1.03882e-24)
(-2.95664 0.0785736 7.91747e-26)
(-2.1531 -2.78485 1.85074e-26)
(1.31229 -3.83069 0)
(1.61626 -2.62129 -1.37727e-24)
(0.411962 -3.46408 -3.98156e-25)
(-9.32004 -16.6134 9.20667e-25)
(-18.1565 -43.7004 5.80519e-25)
(-18.0091 -42.579 8.10786e-25)
(-20.1575 -26.5669 1.14513e-24)
(-32.9487 -15.9178 0)
(-32.8592 -9.13611 9.1016e-25)
(-31.9668 -5.03487 -1.89638e-24)
(-0.955361 4.66333 4.05124e-24)
(-2.86038 2.11661 -1.44269e-25)
(-4.15252 -0.44237 -1.38504e-24)
(-6.03913 -1.04613 -2.17426e-25)
(-8.4469 -0.780763 2.10263e-25)
(-8.86187 -0.853481 7.06337e-25)
(-6.79006 -0.657376 -4.75767e-27)
(-7.12829 -0.865522 -4.84418e-27)
(-9.26534 -1.8868 0)
(-9.51057 -2.76135 2.06325e-26)
(-9.11591 -2.38051 2.21422e-26)
(-8.20314 0.519186 -3.52604e-27)
(-3.77689 4.60703 0)
(-5.0191 1.97041 0)
(-6.53531 -0.632057 -1.86314e-25)
(-8.92012 -0.734556 0)
(-10.4836 -0.470251 1.43915e-25)
(-10.4215 -0.771743 0)
(-8.43178 -0.457858 -2.23877e-26)
(-9.31814 -0.432976 3.51073e-28)
(-10.6429 -0.788872 3.05769e-26)
(-11.9458 -0.532241 0)
(-12.8759 0.478977 1.44486e-26)
(-9.80685 1.57209 8.14865e-27)
(-10.7764 3.46357 0)
(-11.0281 2.72381 -5.2518e-24)
(-11.6702 1.58147 -3.07074e-24)
(-11.4829 0.519826 0)
(-11.6107 -0.236156 0)
(-10.8683 -0.336009 -4.29179e-25)
(-9.18981 1.19623 -8.72785e-26)
(-9.45205 1.56489 7.82871e-27)
(-10.3372 1.4611 -2.30616e-27)
(-11.9652 1.67483 0)
(-12.4993 2.25609 0)
(-10.4959 3.34215 0)
(-15.2765 -1.23773 0)
(-14.5855 -1.19849 0)
(-13.9766 -0.614509 1.3171e-24)
(-13.6418 0.0848809 0)
(-13.1957 1.23726 0)
(-12.2549 2.47948 -1.2323e-25)
(-11.4131 2.53039 -2.39112e-27)
(-10.2418 2.66093 6.40386e-27)
(-9.86884 2.90016 0)
(-10.3621 3.36732 0)
(-12.182 3.83183 -6.05198e-27)
(-12.2327 4.19674 0)
(-15.0417 -2.33368 1.07323e-24)
(-14.6507 -1.50947 1.1293e-25)
(-14.093 0.220924 -9.27867e-25)
(-13.1078 1.73299 0)
(-12.2899 2.38011 0)
(-11.8775 2.12442 7.77092e-26)
(-11.2279 2.25995 7.21993e-26)
(-9.8622 3.1151 4.9285e-26)
(-10.2184 5.58363 6.4807e-26)
(-11.1114 5.68394 0)
(-13.3771 6.44984 -1.80616e-27)
(-13.4617 6.65206 -2.57589e-27)
(-14.3454 -2.12827 -3.14754e-25)
(-13.6072 -1.19397 8.20819e-26)
(-12.8375 -0.320129 -9.80723e-26)
(-12.3062 0.76471 0)
(-12.2436 2.17273 0)
(-11.8646 1.98372 1.87048e-25)
(-10.3512 2.40206 1.93747e-25)
(-9.40439 3.53478 -2.54441e-26)
(-10.3271 5.26344 3.77362e-26)
(-13.6032 7.44841 0)
(-14.4514 10.3182 1.52608e-26)
(-11.5857 9.54262 5.44462e-26)
(-15.7757 -3.72371 1.28514e-25)
(-15.6758 -2.76291 5.24641e-25)
(-14.0569 -1.67357 2.83397e-25)
(-13.3092 0.328923 0)
(-17.2622 -3.48233 1.10424e-25)
(-17.1938 -2.91807 -1.79526e-25)
(-16.1771 0.653184 2.14717e-25)
(-13.4932 3.17601 3.19154e-26)
(-13.1655 9.66506 -5.52986e-27)
(-13.66 7.30529 -2.64617e-26)
(-13.6757 7.07725 -1.57876e-25)
(-12.1755 8.36864 -9.17044e-26)
(-19.7527 -6.28582 1.01121e-25)
(-17.6119 -4.17867 3.26102e-25)
(-15.4951 -0.695261 1.91805e-30)
(-19.4787 -1.90728 1.35605e-25)
(-19.5236 -10.6995 6.28737e-26)
(-19.3159 -10.0504 -1.95002e-25)
(-17.6268 -5.26002 5.9809e-25)
(-13.1157 3.33999 -1.94193e-25)
(-10.8746 -0.862514 -1.94751e-26)
(-12.9976 -1.43366 -5.8357e-25)
(-19.7883 2.20346 2.4157e-25)
(-15.8696 7.01903 2.56469e-25)
(-20.9235 -6.32305 -6.62807e-25)
(-17.5588 -3.26595 0)
(-17.5936 0.8479 -1.73841e-25)
(-22.8094 -2.10975 1.20562e-25)
(-22.9719 -6.81967 1.70669e-26)
(-18.2656 -10.6732 -1.38447e-26)
(-15.048 -7.25532 -7.73223e-26)
(-7.64005 -7.01407 -1.74551e-25)
(-8.53863 -14.3837 0)
(-21.8615 -3.75027 -1.89435e-30)
(-27.806 4.41857 1.25756e-29)
(-23.1024 6.91773 -9.50011e-33)
(-20.642 -3.68478 -9.22643e-25)
(-18.5212 -0.517686 -2.17531e-26)
(-21.1792 1.60621 0)
(-25.1008 -1.97221 1.18187e-25)
(-22.9942 -6.47458 -3.36108e-26)
(-19.1336 -8.39754 -2.58065e-26)
(-13.5969 -9.87346 1.40324e-25)
(-7.40327 -16.3916 1.89566e-25)
(-12.8075 -20.7455 -6.92332e-25)
(-22.7813 -9.47391 -8.00593e-25)
(-26.1502 3.24839 1.40413e-24)
(-22.0351 5.0719 2.43362e-25)
(-23.6494 -0.754172 9.51898e-25)
(-20.9488 3.51632 0)
(-24.2962 3.2688 -1.03295e-25)
(-25.8439 -1.07375 4.20935e-25)
(-22.4184 -5.10137 -5.40305e-26)
(-17.6278 -8.04349 2.63044e-25)
(-13.4291 -10.3149 8.30143e-31)
(-13.2739 -13.3007 1.56775e-24)
(-19.7754 -19.1536 2.21308e-24)
(-24.2644 -12.5221 0)
(-21.1168 -2.0625 -4.16716e-25)
(-16.8623 0.225835 -2.39258e-25)
(-30.1403 -0.0445883 1.45603e-24)
(-25.9718 4.25408 -4.67289e-25)
(-26.7847 3.33026 0)
(-25.8613 -0.642293 -6.77494e-31)
(-21.5112 -4.23322 -4.09416e-26)
(-15.6246 -6.85645 3.98119e-25)
(-13.0424 -7.52241 -2.14889e-25)
(-13.4666 -8.23478 1.093e-24)
(-18.8814 -11.018 3.73935e-24)
(-22.6496 -7.33914 -4.85306e-25)
(-19.8571 -5.84632 -2.4905e-25)
(-16.7017 -1.27096 -3.81827e-25)
(-13.4872 2.10438 -1.04633e-25)
(-12.9103 2.37084 -3.87429e-25)
(-12.8645 3.35011 -3.77044e-25)
(-12.3603 3.54039 0)
(-11.9559 4.29208 3.42404e-25)
(-11.3945 4.99105 3.1408e-24)
(-11.2216 6.02498 6.31325e-24)
(-10.9249 6.50822 3.03644e-24)
(-10.8886 7.52234 1.09407e-24)
(-11.022 8.48671 5.00388e-24)
(-11.447 9.51022 2.09868e-24)
(-10.6191 11.9956 -8.57757e-24)
(-15.2769 0.355992 1.53093e-25)
(-14.7029 0.92651 -2.63022e-25)
(-15.1319 2.15602 0)
(-14.5823 2.80269 -1.13134e-24)
(-14.7858 4.35518 1.14486e-25)
(-14.1494 5.78866 8.49006e-25)
(-14.3267 7.21401 0)
(-14.1629 9.00319 -1.33233e-24)
(-13.8178 11.618 0)
(-13.7626 14.1595 0)
(-14.0952 18.3074 0)
(-13.5133 24.8545 0)
(-16.5578 2.13159 -1.46338e-31)
(-16.1404 2.59205 0)
(-16.1232 3.9263 0)
(-15.4714 4.66824 -2.60401e-25)
(-15.2199 6.37576 -3.18477e-25)
(-14.8544 7.58102 1.46749e-24)
(-14.5459 9.86682 2.8302e-24)
(-14.9249 11.751 0)
(-15.0963 14.7239 0)
(-13.5874 18.5541 5.05318e-24)
(-12.6335 24.2488 9.32604e-24)
(-11.8338 28.8029 0)
(-18.0894 0.915132 -1.49771e-25)
(-17.4627 1.37273 5.44102e-25)
(-17.6602 2.85495 0)
(-16.8343 3.95126 0)
(-16.2443 6.26333 1.29785e-25)
(-15.362 8.07631 1.43535e-24)
(-15.0587 10.8326 2.3973e-24)
(-16.6191 12.0131 0)
(-18.3257 12.556 0)
(-17.1215 15.7967 -2.01972e-25)
(-12.8054 24.3098 0)
(-10.2996 30.308 0)
(-20.0614 1.44501 3.13018e-25)
(-19.5203 2.68536 5.25815e-25)
(-19.3973 4.61413 0)
(-18.4886 5.44457 1.11982e-24)
(-17.5519 7.79965 9.57479e-28)
(-16.2573 9.40633 1.87441e-25)
(-18.1291 9.53481 3.2e-26)
(-20.4775 8.3302 0)
(-21.3964 8.74674 0)
(-20.2121 10.7739 1.09786e-25)
(-17.2862 15.3427 7.55959e-27)
(-11.9855 22.2759 -2.74042e-25)
(-21.1682 2.03689 6.35474e-25)
(-21.4993 2.23923 2.08635e-25)
(-20.6624 3.48555 0)
(-20.2471 4.27352 4.51075e-25)
(-19.2224 6.86488 5.78377e-25)
(-18.3334 7.6081 -5.62038e-26)
(-20.4441 5.45344 1.18304e-25)
(-22.7767 4.48135 0)
(-23.4285 4.12784 0)
(-22.5324 4.8157 -9.94943e-27)
(-20.6783 7.81098 -1.89289e-25)
(-17.1829 12.5389 0)
(-22.2286 1.7665 -1.41707e-25)
(-22.8986 2.2845 9.61233e-25)
(-22.7426 3.74538 -1.14166e-24)
(-21.5099 6.37069 4.40739e-25)
(-18.823 6.32495 -4.07018e-27)
(-18.7175 4.68813 2.09359e-26)
(-20.8946 3.62273 2.37811e-26)
(-22.8452 2.67441 -1.00687e-25)
(-22.9619 1.6828 0)
(-22.3109 1.05754 9.24919e-26)
(-21.0801 1.8192 -2.96282e-25)
(-19.7693 5.43894 -6.26845e-26)
(-24.9273 2.39112 1.30947e-25)
(-25.4265 4.17833 4.80743e-24)
(-22.4537 7.01946 -6.7203e-25)
(-19.1569 5.31889 2.17723e-25)
(-17.8503 3.59599 8.69613e-26)
(-18.5323 3.20014 -2.66655e-25)
(-20.3132 2.58525 4.81363e-25)
(-21.2318 1.78216 -3.83488e-26)
(-20.8629 1.08477 -2.48052e-25)
(-19.9015 0.00937649 2.88945e-30)
(-18.4434 -0.448339 -4.48305e-25)
(-17.6182 0.729762 -2.6064e-26)
(-25.8209 4.66867 1.37555e-24)
(-24.1977 7.48545 9.48464e-33)
(-20.5157 5.63853 7.01922e-31)
(-18.7193 3.18925 0)
(-18.0074 2.56758 2.07588e-26)
(-18.0452 2.69533 -3.38601e-25)
(-18.3302 2.46817 -1.54272e-25)
(-18.0289 2.09168 -1.90128e-25)
(-17.2866 1.8273 -2.88529e-25)
(-16.4894 1.33328 2.41689e-25)
(-15.1263 0.589273 -1.90176e-25)
(-13.6837 0.452934 2.93762e-25)
(-25.0296 8.10257 3.05835e-25)
(-23.8625 7.67653 -2.04663e-25)
(-20.5831 4.92747 1.26692e-25)
(-18.2693 3.46572 -1.4772e-26)
(-16.7335 3.0835 -2.27523e-25)
(-16.1757 3.00007 -2.95304e-25)
(-15.6431 2.67296 -1.51052e-25)
(-14.846 2.39295 -1.22487e-25)
(-13.7038 2.4164 -5.36192e-26)
(-12.8343 2.3816 0)
(-12.2377 2.09963 -2.73367e-26)
(-11.3011 1.85949 1.96685e-25)
(-22.0375 7.83263 2.03318e-26)
(-19.5896 6.51255 1.6031e-26)
(-15.2972 3.94728 0)
(-14.0366 3.53786 -1.96964e-25)
(-13.508 3.13796 -1.7599e-25)
(-13.098 2.8784 -9.11262e-31)
(-12.6561 2.77191 -1.59507e-25)
(-11.9864 2.63513 2.1007e-25)
(-10.8815 2.62538 1.49975e-26)
(-9.82987 2.84294 1.59957e-25)
(-9.21113 2.80777 0)
(-8.86715 2.76483 -1.82874e-25)
(-11.7348 0.0568879 1.683e-26)
(-10.4993 -0.767532 1.07196e-26)
(-8.33804 -1.29437 0)
(-7.12661 -0.0866772 -2.94373e-25)
(-7.18994 2.56117 -1.93859e-26)
(-7.93112 3.42352 -1.21907e-25)
(-8.15774 3.14778 7.14327e-25)
(-7.90731 2.59581 1.49489e-25)
(-7.50941 2.34254 9.55075e-25)
(-7.33111 2.45001 0)
(-7.15781 2.67758 3.15481e-25)