/*--------------------------------*- C++ -*----------------------------------*\
| =========                 |                                                 |
| \\      /  F ield         | OpenFOAM: The Open Source CFD Toolbox           |
|  \\    /   O peration     | Version:  2212                                  |
|   \\  /    A nd           | Website:  www.openfoam.com                      |
|    \\/     M anipulation  |                                                 |
\*---------------------------------------------------------------------------*/
FoamFile
{
    version     2.0;
    format      ascii;
    arch        "LSB;label=32;scalar=64";
    class       volVectorField;
    location    "1.5";
    object      U.oil;
}
// * * * * * * * * * * * * * * * * * * * * * * * * * * * * * * * * * * * * * //

dimensions      [0 1 -1 0 0 0 0];

internalField   nonuniform List<vector> 
3312
(
(1.70857 13.317 0)
(2.71905 12.9845 -2.09039e-25)
(3.76177 13.3029 -2.51954e-25)
(4.25167 13.6536 0)
(5.73781 13.8743 3.20623e-25)
(10.1216 13.8483 9.41247e-25)
(15.2241 15.0664 -3.17953e-26)
(16.1803 16.2637 -6.67398e-25)
(16.026 16.3847 3.45736e-25)
(15.6394 15.696 3.00175e-25)
(15.0261 14.5401 2.99679e-25)
(14.8379 12.929 -5.09935e-25)
(1.50242 14.9622 -1.87925e-27)
(2.66312 14.6164 -9.88388e-26)
(4.69821 15.0494 0)
(6.4607 15.6448 -6.01955e-25)
(9.59051 17.1822 3.88047e-25)
(13.8556 17.5362 6.63899e-25)
(15.5595 17.2045 0)
(15.4519 17.3286 -2.71734e-25)
(14.7081 17.9353 0)
(14.6058 18.1088 0)
(14.585 17.808 0)
(14.4754 17.3369 0)
(2.41553 16.0849 0)
(3.87108 15.0471 0)
(6.1201 14.5219 0)
(8.77292 14.4842 1.63431e-25)
(12.1742 15.6369 -2.48529e-25)
(15.8491 16.4687 8.92527e-25)
(17.1106 16.2329 1.52888e-25)
(17.1905 16.7484 0)
(17.1066 18.2164 0)
(17.641 18.9484 -3.02991e-25)
(18.0798 19.2196 -5.42354e-27)
(17.9822 19.4466 0)
(0.497022 17.7977 0)
(2.08579 16.0395 1.98182e-26)
(5.4389 14.6406 0)
(9.32781 13.714 0)
(13.3612 13.827 7.05201e-26)
(17.078 14.8026 1.05739e-24)
(18.8967 15.7369 2.02681e-25)
(19.1899 16.9911 0)
(19.1134 19.5862 0)
(19.7871 20.4969 -1.84433e-25)
(20.3459 20.8209 0)
(20.3011 21.2388 0)
(-1.20817 19.8783 -8.51358e-26)
(0.406338 17.562 -6.8445e-26)
(5.12861 16.4165 0)
(9.98229 14.4412 -9.41526e-25)
(14.9596 13.4626 2.98504e-26)
(18.836 13.3474 9.37269e-25)
(20.8362 14.1662 -1.87844e-25)
(21.3706 16.5182 0)
(21.8261 19.0896 0)
(22.091 20.0113 -1.55744e-25)
(22.4727 20.1887 1.76483e-26)
(22.491 20.3034 1.99878e-25)
(-2.13637 21.4392 1.32492e-25)
(0.38549 20.8417 2.51564e-25)
(5.95791 19.9077 0)
(11.1372 17.7886 9.1121e-25)
(16.8452 15.081 -7.01054e-25)
(20.6496 13.7394 2.81707e-24)
(22.7809 12.6851 1.91717e-25)
(23.0803 14.747 0)
(22.516 18.1537 0)
(22.4767 18.8488 -1.3037e-25)
(22.6006 18.9221 -4.80877e-25)
(22.8411 18.8777 0)
(-1.71232 22.043 -1.6724e-25)
(0.853374 22.3701 -5.6045e-26)
(5.44253 20.8918 -9.06314e-26)
(10.0088 20.3361 1.213e-24)
(15.9525 17.3746 -1.56867e-24)
(20.5694 14.7028 -3.0997e-24)
(23.2434 12.9597 1.63255e-24)
(23.5716 11.7873 -8.88109e-25)
(23.0483 15.5226 0)
(20.6444 17.5229 -2.10319e-25)
(20.1936 16.9692 -5.77331e-25)
(20.9198 16.2427 1.09066e-25)
(-3.21988 24.4328 5.52533e-25)
(1.09391 23.9844 2.19485e-24)
(6.22648 22.9862 -1.40181e-24)
(11.9215 22.2331 5.5241e-25)
(16.9569 20.24 -6.6395e-24)
(21.1564 16.9848 -1.02346e-23)
(22.849 14.1248 7.70827e-24)
(22.8363 11.5226 -2.08215e-24)
(20.9577 10.6078 -1.83118e-24)
(17.9306 12.2275 -2.55167e-29)
(14.3225 13.0302 -1.6077e-24)
(13.442 12.631 3.11334e-25)
(-2.50712 29.9361 1.89159e-24)
(1.87007 33.3391 -2.21047e-29)
(7.93941 31.9637 1.63496e-29)
(12.7992 30.0857 0)
(17.2462 27.096 -4.37613e-24)
(20.6121 23.628 -2.08616e-23)
(21.1501 18.5596 -3.3363e-24)
(20.8343 14.9879 -4.04945e-26)
(18.458 10.9448 -2.81175e-24)
(15.0847 10.247 1.68875e-24)
(10.7234 9.82381 -9.491e-25)
(7.96165 9.46952 1.12753e-24)
(7.93545 30.12 1.46637e-24)
(7.23704 34.4561 -2.25027e-24)
(9.08971 36.2899 9.75849e-24)
(14.9954 37.8094 -9.52278e-26)
(18.7613 34.3941 -2.20267e-23)
(20.4901 29.856 -2.04667e-23)
(19.6972 23.3462 -2.76575e-24)
(16.1417 17.9799 1.36194e-24)
(12.7157 12.9392 3.89016e-24)
(7.6938 9.3193 0)
(2.98741 7.136 -2.70713e-24)
(0.241619 5.71376 1.55596e-25)
(5.37295 31.1554 1.08227e-24)
(5.83085 35.7704 -7.46024e-27)
(11.9241 35.9252 0)
(14.4561 35.3618 -8.10841e-24)
(12.8655 29.8285 -1.03372e-23)
(10.5206 23.617 -2.01223e-30)
(9.45865 15.4361 -8.73805e-25)
(10.861 8.67047 -1.22866e-25)
(9.64203 5.66201 3.20421e-27)
(9.585 1.99975 2.62785e-25)
(9.19956 0.15832 0)
(7.96714 -1.35081 6.85749e-26)
(15.0954 29.1861 2.32148e-25)
(12.202 29.4638 -2.34562e-25)
(18.3875 27.129 0)
(23.1052 21.4516 1.189e-25)
(23.1769 16.1964 1.72846e-25)
(19.7547 11.6009 -1.6166e-25)
(16.2016 6.03141 5.26325e-25)
(15.238 2.89189 -5.14782e-26)
(15.7833 0.553859 -4.2704e-25)
(14.3124 -0.610918 0)
(12.1818 -1.03055 -3.88894e-25)
(11.7502 -2.31173 1.18174e-24)
(13.7138 11.7737 4.20284e-25)
(12.3343 10.5018 -5.12198e-26)
(10.904 8.21576 -8.76218e-26)
(8.95743 7.66732 -1.25105e-27)
(6.72416 6.25063 4.83218e-25)
(4.32132 5.45397 2.02082e-24)
(2.88 3.54798 1.23387e-24)
(1.91986 1.76054 8.70847e-26)
(2.37958 1.25652 0)
(3.16608 -0.182681 -4.53559e-26)
(3.95118 0.0954192 -2.95735e-26)
(5.49206 -0.471115 -8.44989e-29)
(13.4627 16.8288 0)
(12.7425 16.118 0)
(10.8672 13.8093 5.89196e-26)
(9.57675 12.2803 0)
(6.84956 11.8606 -1.38719e-25)
(3.9351 9.35591 0)
(3.92269 5.98887 3.37943e-25)
(2.52422 1.87565 3.77544e-25)
(3.49086 -0.493052 5.5343e-26)
(4.22876 -2.07053 0)
(4.22834 -4.569 5.17803e-26)
(4.56329 -4.19716 1.20619e-26)
(17.0929 19.5363 0)
(16.0506 19.227 4.85427e-25)
(14.1923 17.6695 7.963e-25)
(12.8906 17.0927 0)
(8.98733 16.7117 0)
(5.83525 13.6883 1.59813e-24)
(5.85494 8.66863 2.36313e-25)
(4.64885 5.12328 -7.35647e-26)
(6.30914 -1.7082 -1.07301e-25)
(9.96304 -5.4755 0)
(10.355 -9.39169 0)
(7.50672 -10.0308 -8.95352e-32)
(19.6566 21.6544 0)
(18.7369 21.8931 0)
(17.4154 21.3923 2.46936e-26)
(15.681 21.1754 0)
(12.5797 19.7804 0)
(9.13702 18.1664 9.67132e-25)
(9.12416 12.575 2.14552e-25)
(10.196 7.77364 2.10996e-27)
(12.9949 1.79168 0)
(12.7168 -2.44409 0)
(12.6637 -8.06058 -1.59882e-28)
(10.147 -11.877 1.19658e-27)
(22.1761 20.6542 -5.06326e-25)
(21.7531 20.8718 1.01063e-26)
(21.0356 20.6865 6.63545e-25)
(19.8024 20.7924 0)
(17.0182 20.0895 0)
(14.9699 19.623 1.5403e-25)
(14.8338 16.4267 5.60612e-26)
(14.9822 13.6855 -2.06829e-26)
(17.7426 7.05558 4.95693e-26)
(14.5536 0.0309278 0)
(15.9636 -5.10724 -2.19493e-26)
(11.9337 -11.2289 -1.65819e-26)
(22.8401 18.7493 -3.23302e-25)
(22.5865 18.8053 -1.12034e-25)
(22.0854 18.8692 -8.39135e-25)
(21.5106 18.7947 0)
(21.311 18.6733 0)
(20.6932 20.5184 3.57283e-25)
(18.7988 22.013 5.69879e-26)
(18.6556 20.4836 6.3832e-26)
(20.0725 13.5516 -5.93107e-26)
(18.6281 1.8253 0)
(18.1463 -3.53469 1.8513e-26)
(13.8375 -11.3069 6.12327e-27)
(21.4401 15.3825 -2.05856e-25)
(22.1101 15.1614 7.6875e-25)
(22.5196 14.8464 4.95523e-25)
(23.052 15.2792 0)
(25.2018 17.0691 1.81271e-25)
(27.2643 20.6066 -2.85896e-25)
(26.1641 22.8114 3.94292e-25)
(23.0509 22.4679 1.62083e-25)
(21.4549 16.2272 -1.59055e-25)
(23.9761 4.13446 -1.38768e-26)
(22.3078 -4.13304 -1.01961e-25)
(15.9371 -11.038 -1.15685e-26)
(13.9802 11.2294 -2.42482e-25)
(17.4685 9.49358 6.29971e-26)
(20.2425 9.65093 -1.6985e-29)
(22.5509 11.1329 2.87889e-25)
(26.4501 15.3516 1.95205e-25)
(29.6156 20.6153 -6.769e-25)
(29.6003 22.8368 1.12345e-24)
(25.2169 23.6845 2.35789e-25)
(21.9479 17.0871 -1.27042e-25)
(20.6037 11.5989 1.32684e-25)
(23.19 -1.64637 -1.03169e-25)
(18.4133 -10.075 5.26375e-27)
(5.69433 8.59535 -1.01607e-24)
(5.84525 7.29082 0)
(10.5281 4.97953 -4.70841e-25)
(18.2033 6.79806 3.15283e-25)
(24.7666 12.5553 6.98205e-26)
(29.6008 17.3441 6.74411e-25)
(30.8163 18.0994 1.35567e-24)
(27.3869 17.1996 2.89138e-25)
(24.8127 13.9701 0)
(17.716 11.0639 8.04064e-32)
(20.7496 2.11043 -3.118e-32)
(18.5956 -8.538 1.76229e-35)
(-1.34793 4.48104 -6.9467e-25)
(-1.36618 3.7387 2.28161e-25)
(0.753427 2.08364 0)
(4.16811 2.39811 3.0799e-25)
(9.91532 6.38696 1.81545e-25)
(22.4764 12.155 5.23368e-25)
(27.8005 12.8667 1.36877e-24)
(26.5444 11.0449 5.15714e-25)
(26.6119 8.53095 1.39996e-25)
(18.3312 3.59084 -2.31572e-26)
(19.2788 1.58254 8.49977e-27)
(18.4394 -9.26316 0)
(6.87422 -2.9839 -1.33488e-25)
(5.05877 -3.68221 0)
(-3.99043 -2.88032 -9.69127e-25)
(-5.26206 -2.10938 -2.42025e-24)
(-5.04936 0.282748 -4.97253e-25)
(3.83242 3.71249 7.89187e-26)
(21.0127 5.383 -5.84344e-30)
(23.772 4.1225 -2.14723e-25)
(23.1956 3.48486 -2.20402e-25)
(16.8798 -0.13989 0)
(17.3926 -2.47194 3.21047e-27)
(14.0268 -10.0377 9.90499e-28)
(11.3712 -3.56107 -1.09616e-24)
(9.99004 -4.66703 7.90329e-25)
(8.09857 -5.7361 0)
(6.33753 -6.68849 2.49076e-31)
(4.68778 -6.44128 -4.95591e-26)
(3.92469 -3.53835 -8.82603e-25)
(14.9186 2.09979 2.57506e-25)
(23.4503 0.899677 1.68896e-25)
(23.7485 -0.344165 -9.48331e-25)
(17.8801 -2.8141 1.37589e-25)
(17.8225 -6.50327 2.98571e-27)
(14.0765 -18.3253 7.9292e-26)
(13.0331 -1.55654 1.83374e-26)
(12.1225 -1.6964 -1.18118e-25)
(11.2563 -1.26408 -9.2332e-26)
(9.82148 -0.759324 0)
(7.91357 -1.22473 2.00892e-26)
(7.36933 -0.254261 -1.49561e-24)
(8.19735 -1.15579 -1.92562e-24)
(6.0262 -9.92475 -7.12272e-25)
(8.6579 -18.6224 6.16846e-25)
(12.6016 -22.038 -3.95687e-24)
(14.5558 -25.5 9.58285e-25)
(14.6975 -26.6781 5.75313e-24)
(15.0482 1.3467 7.79638e-26)
(13.8929 1.22082 4.36274e-26)
(13.6478 0.890179 0)
(12.8204 0.651246 1.07426e-24)
(13.4168 -1.69182 1.20345e-24)
(12.121 -8.85958 5.10523e-25)
(15.6376 -17.5514 0)
(16.0615 -22.1464 -5.08282e-25)
(19.1553 -26.7488 0)
(18.9686 -29.3331 0)
(19.3386 -30.7002 0)
(17.0163 -31.213 0)
(16.4236 0.0936574 0)
(16.331 -0.0273451 0)
(16.2472 -0.677293 0)
(16.1121 -3.31539 -2.26116e-24)
(16.135 -10.947 -1.28673e-24)
(16.4867 -19.9558 2.63293e-24)
(17.4779 -26.6414 -2.3328e-25)
(17.6488 -30.6687 0)
(18.8125 -33.687 0)
(18.3793 -35.1769 -2.68972e-24)
(17.9856 -35.2729 -2.10761e-24)
(14.6456 -32.3868 0)
(17.9975 0.516328 0)
(18.1005 -0.0392625 2.72521e-25)
(18.0958 -1.77634 0)
(18.5126 -5.71182 0)
(17.3744 -14.3498 1.53378e-24)
(16.3904 -24.0506 2.4225e-24)
(17.3087 -29.556 -2.58532e-25)
(16.7483 -32.8565 0)
(17.2594 -35.4833 0)
(16.6946 -36.3453 -4.36164e-25)
(15.1455 -35.4422 0)
(10.0568 -31.4641 0)
(19.0967 -0.50458 -1.82774e-25)
(19.0833 -1.29572 2.11532e-25)
(18.2143 -3.48826 0)
(18.7478 -7.41914 1.05872e-24)
(16.0228 -15.4926 1.53329e-24)
(14.7143 -25.9953 1.34874e-24)
(14.5447 -31.0092 -1.05602e-24)
(14.3146 -33.9849 0)
(13.8155 -37.3307 0)
(12.6049 -38.6933 -2.44758e-24)
(8.86607 -37.5414 -2.11708e-26)
(5.16833 -36.2431 6.43774e-25)
(20.9636 0.52689 -8.66468e-26)
(20.8194 -0.685261 3.62962e-26)
(19.4714 -3.83457 0)
(18.8337 -7.48712 8.60036e-25)
(16.0417 -14.9906 -9.30513e-25)
(12.1006 -26.2394 1.11796e-24)
(12.0301 -31.1139 -1.48635e-24)
(10.8533 -35.1626 0)
(9.8827 -38.5026 0)
(6.65639 -38.9039 -2.16598e-24)
(4.11053 -37.5333 -1.32164e-24)
(3.60413 -37.1932 0)
(22.5629 -0.559057 -4.51806e-26)
(21.8889 -1.46825 1.81954e-25)
(20.068 -4.00681 -7.60733e-27)
(18.0781 -7.21459 4.4802e-25)
(16.8638 -13.0764 -4.10841e-25)
(10.4286 -24.5035 -1.58095e-24)
(9.39753 -30.6386 1.73303e-24)
(8.19405 -33.6751 -2.25949e-24)
(6.10851 -36.4202 0)
(3.59355 -36.3162 1.06332e-24)
(2.71987 -36.245 1.04054e-24)
(4.02178 -36.2839 3.79016e-25)
(24.4218 0.620271 5.7622e-26)
(22.8068 -0.159357 5.86474e-25)
(21.6548 -2.70162 -6.72194e-26)
(17.0171 -6.9885 -1.41985e-25)
(16.125 -11.5152 -4.87349e-25)
(10.5383 -20.7633 -1.11798e-24)
(6.76083 -29.0626 2.31934e-24)
(5.52919 -31.8807 -3.37217e-24)
(3.14301 -34.1749 -2.92478e-24)
(0.727668 -34.5561 -6.00439e-29)
(0.0988322 -33.2739 -8.45241e-25)
(3.41117 -32.8766 6.58295e-25)
(25.0294 -0.0377734 -1.61196e-25)
(23.9793 -0.132473 -4.6949e-30)
(22.9606 -0.78899 9.60048e-30)
(18.7483 -4.29334 0)
(17.1809 -10.8261 -4.79973e-25)
(12.5433 -17.4058 -1.49246e-24)
(6.59793 -26.0371 -1.10262e-24)
(4.78965 -29.1819 -5.08591e-25)
(1.67473 -30.808 -3.28605e-24)
(-1.11244 -30.5922 2.20692e-24)
(-1.36978 -29.1944 -1.36505e-24)
(1.07515 -26.9694 3.24422e-24)
(27.2653 2.54655 -5.86995e-25)
(31.5039 1.78095 -1.80305e-25)
(35.9455 -0.681999 2.82119e-24)
(29.5538 -7.70985 -2.89235e-25)
(19.8585 -13.5521 -4.2102e-24)
(16.0099 -17.0944 -5.25405e-24)
(8.42424 -25.2652 -2.58323e-24)
(5.50305 -26.9705 -5.78843e-25)
(1.96453 -27.5707 9.57248e-25)
(-1.13073 -28.0624 0)
(-3.93667 -26.0174 -1.51436e-24)
(-3.69143 -22.2757 2.23664e-24)
(31.1402 -5.57205 -1.33973e-25)
(39.745 -8.24806 -1.27485e-25)
(43.2595 -5.16999 0)
(43.7899 -3.86887 -5.17063e-24)
(27.8918 -9.01164 -1.48206e-23)
(25.4846 -18.6827 -3.66843e-29)
(12.2032 -23.4235 -9.21164e-24)
(9.27549 -24.7993 7.09779e-25)
(3.56479 -24.6127 2.51855e-25)
(-0.496531 -24.1233 1.61732e-24)
(-2.62751 -22.1531 0)
(-2.84105 -17.6877 -2.66167e-24)
(31.6867 -7.15867 -4.65006e-25)
(39.2358 -11.0546 -4.43022e-25)
(37.9555 -11.8595 0)
(46.9352 -7.27631 -6.49153e-24)
(42.4563 -13.8575 -2.35183e-23)
(30.5776 -18.7527 7.76292e-24)
(19.344 -21.8559 -3.06426e-23)
(13.7138 -22.973 -8.47106e-25)
(8.55781 -20.3315 7.29813e-24)
(4.71458 -18.6798 0)
(-1.77885 -17.2121 2.49765e-24)
(-5.22716 -16.2136 -6.19511e-25)
(13.3735 -27.6035 -4.2552e-24)
(9.26132 -25.7573 -2.93837e-25)
(5.38041 -23.9101 -4.55643e-27)
(3.44348 -22.0206 -7.21487e-26)
(2.62114 -20.8427 -1.06975e-25)
(2.46416 -19.4051 -2.91226e-25)
(1.86105 -18.4085 -1.76437e-25)
(1.21308 -17.7888 -7.55308e-27)
(0.848085 -17.2161 0)
(-2.5385 -13.2296 5.15389e-27)
(-3.61154 -12.0421 1.29096e-27)
(-5.38653 -9.40586 -1.25568e-27)
(13.2658 -28.8424 0)
(8.7337 -25.2292 0)
(6.53394 -23.2403 -1.21725e-25)
(6.25804 -22.0025 0)
(6.9854 -21.5644 2.81878e-26)
(7.52242 -21.8978 0)
(7.03533 -22.1427 -1.9239e-26)
(4.98322 -21.4223 -2.57021e-27)
(2.31868 -19.3577 1.02474e-26)
(-2.38057 -14.8501 0)
(-3.47068 -12.8816 -9.07204e-27)
(-5.10365 -10.5748 5.82407e-28)
(10.6434 -28.7769 0)
(8.8511 -27.3985 2.70158e-27)
(8.6101 -26.9572 -5.02194e-26)
(9.20248 -27.1088 0)
(9.24986 -27.2106 0)
(8.16143 -25.9705 -9.41227e-26)
(5.9312 -24.4922 -4.85686e-26)
(3.59719 -22.8282 1.06746e-26)
(0.625989 -20.1934 2.39656e-26)
(-1.71974 -18.0761 0)
(-1.37503 -16.6036 0)
(-4.97922 -13.3938 -1.38159e-27)
(7.62375 -30.2739 0)
(7.14064 -30.3365 0)
(7.65476 -31.0756 -2.21416e-26)
(7.82273 -31.1288 0)
(7.16865 -29.8869 0)
(5.68868 -28.4076 -1.38822e-25)
(3.73488 -26.1506 -1.036e-25)
(2.37013 -24.0773 -2.11904e-26)
(0.954058 -21.381 0)
(-0.451608 -20.0188 0)
(-0.210438 -16.8858 -1.10492e-26)
(-6.09076 -13.3962 9.74121e-28)
(4.08094 -35.9133 1.31042e-25)
(4.66038 -36.1677 -9.82802e-27)
(5.17005 -36.1123 -1.26718e-25)
(4.92745 -35.1391 0)
(3.88349 -33.0375 0)
(3.15418 -30.1826 3.84354e-26)
(2.58959 -27.1946 -9.44859e-26)
(1.89247 -25.1449 -6.28748e-26)
(0.495458 -23.0276 -5.00856e-26)
(-0.359248 -21.9318 0)
(-1.38791 -15.7382 -9.12303e-28)
(-9.22297 -10.5885 6.92254e-27)
(5.41489 -38.4756 8.16268e-26)
(6.23739 -38.9061 6.05669e-28)
(6.61355 -38.4002 2.16789e-25)
(5.66624 -36.7258 0)
(4.3921 -34.9351 0)
(2.66131 -32.7161 -1.2584e-25)
(0.210676 -30.3384 -1.71417e-25)
(-0.0788871 -26.6613 6.88679e-26)
(-0.37056 -24.0287 -6.3615e-26)
(0.413792 -23.0416 0)
(-2.22494 -15.6015 -1.02012e-26)
(-8.9362 -9.99826 -1.00187e-26)
(6.97622 -37.4684 -1.24002e-25)
(8.56739 -37.7195 2.14992e-25)
(9.44822 -36.9269 -2.58194e-25)
(9.02491 -35.0269 0)
(7.80337 -33.4421 9.84028e-26)
(5.28795 -32.3675 -9.77082e-26)
(1.56629 -32.0679 8.85253e-26)
(-0.0330405 -29.2215 6.39087e-26)
(-0.585579 -26.0929 -6.95064e-26)
(0.505703 -24.8573 -1.8327e-27)
(-1.03091 -16.9959 -1.04795e-26)
(-7.02213 -10.843 -2.77759e-28)
(7.09441 -32.113 -3.73642e-25)
(9.1037 -30.0803 8.36034e-25)
(10.5798 -27.8972 1.7235e-29)
(11.1889 -24.6752 3.89957e-25)
(11.0491 -23.5885 -2.23002e-25)
(8.62808 -24.8814 -4.11042e-25)
(3.11451 -31.0282 9.16445e-26)
(0.248225 -31.5137 8.5497e-26)
(-1.54397 -28.9043 -2.76881e-26)
(-0.852277 -27.0631 7.79591e-26)
(-1.73912 -21.2839 -8.07511e-26)
(-4.51769 -13.2421 -4.19067e-26)
(2.46073 -21.3794 -4.30927e-24)
(3.22104 -13.2116 0)
(4.69565 -7.79809 -1.77694e-24)
(5.31369 -4.38611 8.30372e-25)
(6.66547 -4.87524 1.10943e-24)
(5.98766 -15.8458 2.35163e-25)
(2.35775 -29.9286 9.09371e-26)
(0.130813 -32.7769 4.6898e-26)
(-0.136575 -32.2532 0)
(0.967356 -29.8044 -6.26074e-31)
(0.258838 -25.9781 7.09507e-32)
(-0.615321 -19.2453 1.06949e-32)
(-2.82563 -15.9897 -2.21861e-24)
(-0.937253 -7.9936 9.55103e-25)
(-0.00296917 -2.3193 0)
(0.883098 0.0104301 1.85937e-24)
(2.14544 -0.764289 8.8116e-25)
(1.03144 -17.9005 3.04096e-25)
(-0.935734 -32.7173 1.70019e-25)
(-1.1489 -34.9551 1.10519e-25)
(-2.42881 -34.7452 8.28073e-26)
(-1.4902 -32.8957 -7.61429e-27)
(-1.07642 -30.9896 7.83989e-26)
(-0.119654 -27.2883 2.799e-26)
(-3.02081 -11.1316 2.11014e-24)
(-4.72531 -6.44587 0)
(-4.42785 -5.10854 -2.14169e-26)
(-4.20421 -5.62124 -3.8437e-25)
(-4.37906 -6.26781 -8.91689e-26)
(-3.74269 -8.69393 -2.93144e-25)
(-4.27557 -28.4975 -1.10913e-30)
(-5.83841 -38.3329 -9.06262e-26)
(-3.18366 -38.0265 1.8042e-25)
(-1.42119 -36.7329 0)
(-0.243331 -36.3202 -2.49609e-26)
(1.9812 -34.256 2.28965e-26)
(-7.63636 -12.64 2.44256e-26)
(-6.34077 -8.65549 2.916e-25)
(-5.59327 -6.62485 0)
(-5.06421 -5.51941 -7.94205e-31)
(-4.84519 -5.06848 9.08468e-26)
(-5.12102 -4.97687 -3.71917e-25)
(-6.80619 -6.49983 4.65531e-25)
(-11.9556 -17.5577 -1.07031e-24)
(-11.0171 -32.1298 -4.30865e-24)
(-5.48668 -36.4455 7.40068e-25)
(-4.05143 -37.2226 -8.15274e-26)
(-1.1306 -34.5941 -5.62659e-26)
(3.78194 -12.1474 0)
(2.60067 -9.17169 1.59166e-25)
(2.07737 -6.27909 1.65732e-25)
(1.64439 -3.31635 0)
(1.14641 -1.87108 -2.37799e-25)
(-0.100904 -0.91098 1.8201e-24)
(-1.7545 -1.52194 6.89976e-24)
(-2.80704 -3.68923 3.53574e-24)
(-4.16851 -4.03606 -4.34177e-26)
(-8.54978 -5.3671 5.40025e-24)
(-14.844 -6.63552 -4.76263e-25)
(-31.3706 -3.55481 4.22386e-24)
(9.31591 -16.145 3.76665e-25)
(7.81641 -10.8763 1.00087e-24)
(7.06787 -9.05027 0)
(4.49354 -5.76546 4.70264e-24)
(0.516126 -3.30761 -2.38669e-24)
(-3.31036 -2.65838 -2.16712e-24)
(-8.16001 -4.18376 0)
(-9.10309 -7.21701 9.78849e-25)
(-12.4437 -10.1759 0)
(-24.2069 -8.79963 0)
(-37.1047 -8.60661 0)
(-37.7936 -6.67712 0)
(12.6336 -18.7267 -3.70161e-30)
(12.4748 -12.5383 0)
(9.54478 -12.2125 0)
(6.46057 -8.21372 -1.16201e-24)
(0.31385 -6.23622 2.44125e-24)
(-9.38907 -3.66234 -9.90258e-25)
(-13.6961 -4.45304 8.74577e-24)
(-15.2718 -5.9813 0)
(-25.4549 -7.96797 0)
(-37.535 -7.13004 2.70765e-24)
(-40.787 -6.72707 -1.17511e-25)
(-38.9162 -4.31663 0)
(15.0126 -21.0634 2.18388e-27)
(14.2222 -15.7573 -2.55072e-25)
(10.824 -16.816 0)
(5.27851 -13.3214 0)
(-5.30375 -11.3294 -1.01815e-24)
(-13.2853 -8.56226 6.39176e-24)
(-17.7998 -8.4898 9.60856e-24)
(-25.2313 -8.79053 0)
(-35.4387 -8.72686 0)
(-41.0281 -7.52509 -6.10531e-26)
(-41.6325 -6.06112 0)
(-38.8537 -4.01955 0)
(14.3728 -22.9498 -7.20854e-25)
(14.3745 -19.5002 -9.67474e-25)
(8.34758 -21.795 0)
(2.00665 -18.5769 6.12684e-24)
(-9.35674 -16.2829 1.86228e-24)
(-18.7855 -13.1681 6.95754e-24)
(-26.754 -12.3728 -2.58415e-24)
(-33.3948 -10.9107 0)
(-39.608 -9.03615 0)
(-41.8222 -7.04791 5.70758e-25)
(-41.4162 -5.2545 4.55387e-26)
(-38.651 -3.52495 5.61019e-25)
(13.1685 -24.1324 6.23165e-25)
(11.9722 -23.24 1.32906e-24)
(6.6925 -25.9333 0)
(-0.832027 -23.8081 6.90473e-24)
(-14.9208 -21.6443 -7.70866e-24)
(-24.5386 -18.4446 1.69024e-23)
(-31.3488 -15.696 1.87143e-24)
(-36.0077 -12.2173 0)
(-39.7359 -9.29863 0)
(-41.3525 -7.06889 1.96885e-24)
(-40.6114 -5.23187 -8.20942e-25)
(-37.9448 -3.46606 0)
(10.5337 -26.1171 -1.31305e-24)
(9.31971 -25.2311 -3.73962e-25)
(3.22392 -28.5255 -1.47537e-24)
(-4.06655 -26.5588 8.45226e-24)
(-17.7046 -24.661 -1.00256e-23)
(-26.2427 -20.9634 -1.7142e-23)
(-32.1587 -16.7711 9.4251e-24)
(-35.9693 -12.6665 -5.74662e-24)
(-39.2685 -9.21447 0)
(-40.6526 -6.28062 -4.97788e-25)
(-39.6656 -4.01666 -3.23608e-24)
(-36.7581 -2.26874 9.91791e-25)
(8.4861 -27.4126 -9.67225e-25)
(6.79635 -28.315 5.55371e-24)
(1.39556 -31.0635 -6.6102e-24)
(-5.06735 -28.5296 8.85571e-24)
(-19.2321 -26.0477 -4.93975e-24)
(-26.17 -21.7461 -2.39031e-23)
(-31.8172 -17.2264 1.32766e-23)
(-35.3563 -12.8699 -3.26735e-24)
(-38.0635 -9.23932 -3.67816e-24)
(-38.9102 -6.18272 -2.90054e-29)
(-36.9009 -3.84766 -2.981e-24)
(-34.1411 -1.6761 1.43926e-24)
(4.66817 -28.1829 1.68208e-25)
(2.72838 -30.8284 -9.34733e-30)
(-0.428404 -31.4622 1.22402e-29)
(-6.24065 -30.3992 0)
(-19.0786 -26.2032 -1.95751e-24)
(-25.2174 -21.8854 -1.29631e-23)
(-30.6013 -17.1407 -1.9154e-24)
(-33.3435 -12.9095 -1.41279e-24)
(-35.3256 -9.05996 -4.02152e-24)
(-35.6997 -5.1022 3.57535e-24)
(-33.9339 -1.98644 -2.85506e-24)
(-31.8672 0.549989 3.63396e-24)
(3.85116 -31.0248 8.5456e-25)
(2.86604 -34.2342 -1.95689e-24)
(-0.693892 -33.8155 4.81997e-24)
(-6.58148 -34.236 -1.25693e-24)
(-18.4041 -27.3947 -1.85736e-23)
(-23.858 -23.1877 -1.20604e-23)
(-28.7801 -17.9433 -1.90145e-24)
(-31.2922 -13.2784 -8.20057e-25)
(-32.5316 -9.15771 3.28446e-26)
(-31.8786 -5.00098 0)
(-30.3782 -2.31627 -2.03248e-24)
(-29.521 1.43224 1.50171e-24)
(-4.79703 -30.1724 -6.66571e-26)
(-3.22309 -34.6258 2.22191e-25)
(-3.84929 -32.5355 0)
(-7.33315 -33.5163 -7.65608e-24)
(-15.9622 -27.476 -1.1545e-23)
(-20.8542 -22.0789 -9.69553e-30)
(-24.7945 -17.1162 -4.8298e-24)
(-26.5692 -12.8761 3.63851e-25)
(-27.0033 -9.52752 2.05932e-25)
(-27.3858 -5.09968 1.32344e-24)
(-27.4794 -0.90203 0)
(-27.285 2.06771 -2.65859e-24)
(0.432847 -30.3659 -6.78324e-25)
(4.12223 -38.4398 4.19007e-25)
(1.96861 -37.5704 0)
(-4.57477 -38.593 -4.23114e-23)
(-12.888 -31.059 -1.46787e-23)
(-17.9243 -24.4876 4.25401e-24)
(-22.2817 -18.1272 -9.23975e-24)
(-23.9908 -12.8785 5.93269e-25)
(-23.8743 -8.38551 3.42272e-24)
(-23.9983 -4.00357 0)
(-24.0384 -0.59042 2.72099e-24)
(-23.9772 2.70621 -4.2406e-24)
(-33.1553 -5.7596 -7.14838e-24)
(-33.167 -5.94191 -4.24804e-25)
(-36.2906 -5.54835 2.62425e-24)
(-39.9203 -3.6188 -6.25092e-25)
(-42.2612 -0.450081 1.11253e-25)
(-41.8752 2.75471 -4.98766e-24)
(-39.7213 6.10136 -5.16555e-24)
(-36.9626 9.71203 -1.01117e-25)
(-33.6574 13.0929 0)
(-29.9275 15.9208 -4.09056e-26)
(-21.2103 17.1617 -4.94986e-26)
(-14.4025 18.1237 4.88008e-27)
(-33.0576 -5.49404 0)
(-31.1479 -5.44486 0)
(-31.5971 -5.36592 -2.78433e-25)
(-34.6916 -4.34261 0)
(-38.3935 -1.56972 2.38531e-25)
(-38.6384 2.10948 0)
(-36.7808 5.79246 -2.49409e-25)
(-34.5466 9.93071 3.02768e-25)
(-31.2039 13.9116 1.65524e-25)
(-27.21 17.8447 0)
(-16.476 21.1169 1.57066e-26)
(-10.5912 17.1141 1.19202e-26)
(-33.8543 -2.69378 0)
(-30.881 -1.88356 2.52178e-25)
(-30.2372 -1.28806 5.61232e-26)
(-31.0663 -0.205962 0)
(-34.0812 2.00171 0)
(-35.9627 5.43058 -3.68541e-25)
(-34.5919 8.86103 -2.6632e-25)
(-31.4544 11.7648 -4.28591e-26)
(-27.3052 14.5406 -1.6511e-25)
(-22.8845 17.9503 0)
(-15.07 18.031 0)
(-11.9622 1.76803 0)
(-34.0763 -2.64561 0)
(-30.4806 -1.73149 0)
(-29.2232 -0.822728 2.51023e-26)
(-29.277 0.446486 0)
(-30.5278 2.47752 0)
(-31.7941 5.48942 -1.63584e-25)
(-31.1079 8.33826 -2.06842e-25)
(-28.4253 10.7818 1.75542e-26)
(-24.1224 12.9946 0)
(-21.1554 16.8733 0)
(-11.891 16.9401 7.47987e-27)
(-12.3449 -3.37597 0)
(-34.1743 -2.38582 -4.59321e-25)
(-30.1669 -1.13859 -7.54895e-29)
(-28.7365 0.224412 9.37679e-26)
(-28.6712 1.7205 0)
(-29.7581 3.45575 0)
(-30.3555 5.23539 -1.05109e-26)
(-28.833 7.27136 -8.96253e-26)
(-26.6489 9.29808 -1.75349e-27)
(-21.4708 10.7688 -2.27615e-26)
(-19.8463 14.4503 0)
(-10.2667 14.1747 3.25658e-26)
(-11.6419 -4.34631 2.93386e-26)
(-33.9154 -2.0877 -3.69933e-25)
(-30.4363 -0.363021 4.15713e-25)
(-29.1992 1.89723 1.25729e-25)
(-29.533 3.35456 0)
(-30.2492 3.74044 0)
(-29.8858 4.53089 -1.54031e-25)
(-27.814 5.67853 -1.831e-25)
(-25.7134 6.89652 4.61514e-26)
(-20.9296 7.30732 -4.69172e-26)
(-19.8644 9.06474 0)
(-10.598 8.39493 -3.71391e-26)
(-12.8728 -10.0089 -3.84668e-26)
(-33.0523 -0.582634 -7.96167e-25)
(-30.9416 1.57666 -3.63605e-25)
(-30.8669 2.97165 -1.04879e-25)
(-31.4289 3.19929 0)
(-31.481 2.68964 6.29982e-26)
(-30.6994 2.31636 -1.08494e-25)
(-29.067 1.36894 1.49468e-25)
(-27.224 -0.817114 7.69317e-26)
(-23.8251 -4.99281 -7.2137e-26)
(-23.9812 -8.99347 8.47561e-27)
(-16.2794 -10.3647 7.50305e-26)
(-14.2396 -13.5044 3.40948e-26)
(-31.6746 0.87895 -9.52121e-25)
(-30.6693 2.80995 -1.49172e-26)
(-31.011 2.71488 -3.92452e-30)
(-31.7772 1.12091 1.4909e-25)
(-30.9117 -1.21772 -1.11913e-26)
(-28.7055 -3.84238 -8.30587e-25)
(-25.5217 -7.19047 3.08382e-25)
(-22.7304 -11.8481 1.41284e-25)
(-21.0737 -15.4475 -6.89972e-26)
(-23.2974 -18.0806 1.37297e-25)
(-16.5525 -15.1145 -1.3575e-25)
(-14.8324 -13.0455 -2.88037e-26)
(-30.3217 2.77874 -1.68231e-24)
(-29.7678 3.28697 0)
(-30.1818 1.99596 -2.62858e-25)
(-29.1219 -1.17351 3.17949e-25)
(-24.4389 -5.43631 3.52247e-25)
(-18.869 -9.67583 7.11251e-25)
(-15.2975 -12.7107 9.39025e-25)
(-14.4087 -15.2995 2.89535e-25)
(-14.4969 -17.2869 0)
(-18.9064 -18.4413 -4.82747e-30)
(-14.9245 -11.6549 -1.23759e-30)
(-15.4327 -12.6399 7.4546e-34)
(-28.7846 3.24381 -6.46748e-25)
(-28.0914 3.16961 4.04521e-25)
(-27.2208 1.39518 0)
(-22.0891 -1.67186 1.47037e-24)
(-12.1037 -5.98124 1.03733e-24)
(-6.01465 -9.45927 2.04489e-24)
(-5.43417 -11.3113 4.23682e-24)
(-8.15548 -12.3173 3.96542e-24)
(-11.4294 -12.8769 1.55689e-24)
(-18.232 -12.4589 -2.06827e-24)
(-14.0351 -10.2074 7.28555e-25)
(-15.4729 -11.9196 6.45465e-26)
(-26.0559 3.03352 1.70709e-24)
(-24.1208 2.74552 0)
(-19.5475 1.31424 -5.0441e-25)
(-10.2666 -1.41589 5.20942e-24)
(-4.05877 -4.09083 -1.34085e-24)
(-3.01725 -6.47819 1.11523e-24)
(-4.17634 -7.31123 -1.29755e-29)
(-7.13126 -8.96199 8.55546e-25)
(-10.1215 -8.34284 1.07987e-24)
(-10.6681 -5.57067 0)
(-9.3667 -5.6068 -3.28666e-26)
(-13.7658 -11.1342 1.91514e-25)
(-22.1082 3.82815 2.91765e-24)
(-18.8494 3.69953 -1.42297e-24)
(-12.8775 2.81904 0)
(-6.66412 0.908216 -2.86279e-30)
(-3.14687 -1.34809 -7.86724e-25)
(-3.46019 -3.84417 -5.71833e-26)
(-5.72759 -3.89369 1.71077e-25)
(-6.36777 -1.5702 1.26265e-25)
(-7.20283 0.283462 3.6493e-26)
(-7.63045 0.394487 -2.33896e-26)
(-7.6447 -1.09342 -1.59006e-25)
(-14.7996 -2.7339 2.2286e-26)
(-12.9919 0.554814 -1.7519e-26)
(-10.8245 0.70738 -2.42899e-26)
(-10.1384 0.819443 -1.63174e-26)
(-8.21095 1.2702 0)
(-7.68864 1.37478 2.09564e-26)
(-7.89135 1.34762 2.73625e-26)
(-7.98271 1.69798 1.69792e-25)
(-7.0417 3.20775 5.23049e-26)
(-5.66586 6.19018 2.59973e-26)
(-6.07133 6.88479 3.72708e-25)
(-8.17718 7.76053 2.79741e-25)
(-5.94429 12.5203 -6.78624e-25)
(-15.3326 -3.911 1.48048e-25)
(-12.7575 -2.71501 1.38877e-25)
(-12.2733 -1.11937 0)
(-12.1787 0.855087 1.18053e-25)
(-10.8109 5.50059 9.36973e-26)
(-10.566 7.8013 1.59317e-25)
(-11.2468 8.53142 0)
(-11.8387 8.06073 -1.62945e-25)
(-12.4281 9.53139 0)
(-11.0228 13.8989 0)
(-11.4102 20.0933 0)
(-12.0192 22.8126 0)
(-17.7791 -4.03836 1.07078e-30)
(-16.5112 -2.25036 0)
(-16.2465 3.15788 0)
(-16.5931 5.73655 -6.72352e-25)
(-16.0609 6.54705 -4.22753e-25)
(-14.6971 6.67896 7.38057e-25)
(-13.98 8.11318 1.61177e-25)
(-13.026 11.1749 0)
(-12.6024 18.1799 0)
(-12.4556 23.1538 2.79634e-25)
(-12.3267 25.0446 1.6959e-24)
(-12.074 25.8719 0)
(-18.9668 -2.83727 -6.73643e-26)
(-20.1525 -0.300895 3.55589e-25)
(-19.9957 4.27224 0)
(-20.5689 5.94384 0)
(-19.7479 7.44684 8.84721e-25)
(-19.3299 9.84363 1.16358e-24)
(-17.1959 13.4152 4.88932e-25)
(-16.581 19.0768 0)
(-15.5121 23.4252 0)
(-14.6476 25.2638 -2.17978e-24)
(-13.6185 25.9169 0)
(-12.8411 26.3386 0)
(-19.9968 -0.631788 6.29224e-26)
(-21.1807 2.00884 2.75197e-25)
(-20.5123 6.64831 0)
(-22.347 8.29802 1.63597e-24)
(-22.1883 9.75908 1.58369e-24)
(-22.3528 11.6863 2.06746e-24)
(-20.1159 15.8957 -2.33945e-24)
(-17.7859 20.8725 0)
(-15.7855 23.8402 0)
(-14.6566 25.2525 7.46888e-25)
(-13.2871 25.8494 1.85104e-25)
(-12.3051 26.2117 -3.32862e-25)
(-21.5086 -0.0887758 1.67287e-25)
(-23.1221 2.30447 2.79568e-26)
(-20.9495 7.53864 0)
(-22.1961 9.99386 1.31392e-24)
(-22.5741 11.2091 -1.23393e-24)
(-22.7392 13.4208 1.89201e-24)
(-21.3604 16.5887 -9.66464e-25)
(-18.2604 20.7385 0)
(-15.7041 23.5278 0)
(-14.5425 24.7887 3.1655e-24)
(-13.2172 25.1406 -2.92949e-24)
(-12.3955 25.3034 0)
(-22.5019 2.25359 -2.05755e-26)
(-24.6556 3.45346 5.29354e-25)
(-22.0526 7.95952 1.9817e-25)
(-21.7202 11.2504 1.11194e-24)
(-21.7894 12.6959 -1.03761e-24)
(-22.5332 14.1339 -2.323e-24)
(-21.4481 16.5074 2.91174e-24)
(-18.6642 19.8491 -3.61437e-24)
(-14.9273 22.3876 0)
(-13.6992 23.4809 -7.2997e-26)
(-12.3852 23.5282 -4.98372e-24)
(-11.6005 23.7654 5.32389e-26)
(-25.2877 2.67591 2.31231e-26)
(-26.6509 3.81081 1.1202e-24)
(-25.18 7.40339 -1.10504e-24)
(-22.1742 11.1293 5.50987e-25)
(-21.4645 12.9009 -1.07223e-24)
(-21.2124 14.3621 -3.34405e-24)
(-20.7893 16.1635 3.41481e-24)
(-19.1595 18.4935 -1.55577e-24)
(-15.1402 20.7768 -2.58954e-24)
(-12.0541 21.667 -3.03781e-30)
(-10.4499 19.7661 -1.46908e-24)
(-9.47863 19.7555 9.84589e-26)
(-25.9129 6.10719 2.33646e-25)
(-28.6683 5.11957 2.1e-31)
(-28.6654 6.9545 -4.33139e-30)
(-25.9874 10.4654 0)
(-22.0179 12.4782 -6.44872e-25)
(-20.5096 13.3219 -2.37891e-24)
(-17.1824 15.6547 -5.03927e-25)
(-14.5211 13.5446 -7.81557e-26)
(-12.1056 8.21664 -1.3411e-25)
(-10.7341 6.90718 8.33938e-26)
(-9.5333 6.56494 -6.1251e-26)
(-8.12369 6.83106 9.49058e-26)
(-29.3326 6.78493 3.0655e-25)
(-31.017 6.7976 -6.56079e-25)
(-29.0897 7.66269 8.51509e-25)
(-25.3722 8.12627 -1.20767e-25)
(-18.8821 6.72212 -2.28441e-25)
(-15.2985 5.11196 -1.31048e-25)
(-12.9414 3.95908 -2.73491e-26)
(-11.7161 2.22483 -1.12407e-26)
(-10.9691 1.02303 -3.73526e-27)
(-10.4632 0.535218 0)
(-9.79186 0.702894 -1.40018e-26)
(-9.03955 0.563284 7.1221e-26)
(-10.0887 3.5124 9.70497e-28)
(-12.4242 4.35975 -1.15302e-27)
(-11.6108 3.75999 0)
(-10.1455 2.29462 -6.45022e-26)
(-9.48699 1.74741 -7.59072e-26)
(-9.70113 1.08824 -1.90797e-31)
(-9.55 0.450014 -1.5272e-25)
(-9.24383 0.292814 8.47827e-27)
(-8.92123 0.252336 4.62973e-27)
(-8.67783 0.138985 5.9229e-27)
(-8.52253 0.00245733 0)
(-8.47596 -0.114896 -1.11032e-25)
(-3.98923 -0.985067 1.98407e-25)
(-4.06375 -0.405366 5.07279e-27)
(-4.18509 0.421847 0)
(-4.08353 0.716687 9.7058e-25)
(-4.01496 1.46766 4.32084e-25)
(-4.65777 2.00217 -6.82217e-25)
(-5.64216 1.2277 3.1558e-25)
(-6.14116 0.820558 -4.37744e-26)