/*--------------------------------*- C++ -*----------------------------------*\
| =========                 |                                                 |
| \\      /  F ield         | OpenFOAM: The Open Source CFD Toolbox           |
|  \\    /   O peration     | Version:  2212                                  |
|   \\  /    A nd           | Website:  www.openfoam.com                      |
|    \\/     M anipulation  |                                                 |
\*---------------------------------------------------------------------------*/
FoamFile
{
    version     2.0;
    format      ascii;
    arch        "LSB;label=32;scalar=64";
    class       surfaceScalarField;
    location    "1.5";
    object      phi;
}
// * * * * * * * * * * * * * * * * * * * * * * * * * * * * * * * * * * * * * //

dimensions      [0 3 -1 0 0 0 0];

oriented        oriented;

internalField   nonuniform List<scalar> 
6392
(
3.8626e-05
-3.8626e-05
8.14864e-05
-4.28604e-05
0.000111778
-3.0292e-05
0.000128083
-1.63049e-05
0.000138365
-1.02814e-05
0.00015257
-1.42055e-05
0.000161016
-8.44588e-06
0.000147367
1.36491e-05
0.00012128
2.60868e-05
6.67094e-05
5.45707e-05
-7.38661e-05
0.000140575
0.00023801
-0.000311876
4.8077e-05
-8.67029e-05
9.33456e-05
-8.8129e-05
0.000120022
-5.69688e-05
0.000126622
-2.29043e-05
0.000113235
3.10497e-06
9.48892e-05
4.14067e-06
7.1246e-05
1.51972e-05
2.33377e-05
6.15575e-05
-5.53086e-05
0.000104733
-0.000189068
0.00018833
-0.000361242
0.00031275
0.000343225
-0.000466457
4.52472e-05
-0.00013195
8.66541e-05
-0.000129536
0.000108245
-7.85593e-05
0.000103958
-1.86174e-05
7.66449e-05
3.04178e-05
3.25154e-05
4.82702e-05
-1.3833e-05
6.15456e-05
-5.39268e-05
0.000101651
-0.000112201
0.000163008
-0.000215336
0.000291465
-0.000319237
0.000416651
0.000417886
-0.000393898
4.31355e-05
-0.000175086
8.09122e-05
-0.000167313
0.000101634
-9.92811e-05
9.37221e-05
-1.07055e-05
5.9104e-05
6.50359e-05
1.16937e-05
9.56805e-05
-2.92133e-05
0.000102453
-5.63138e-05
0.000128752
-9.97135e-05
0.000206407
-0.000159756
0.000351508
-0.000216964
0.000473859
0.000473163
-0.000272241
2.92473e-05
-0.000204333
5.52519e-05
-0.000193317
7.52333e-05
-0.000119263
7.40967e-05
-9.5689e-06
3.74227e-05
0.00010171
-1.04594e-05
0.000143563
-4.32405e-05
0.000135234
-5.43036e-05
0.000139815
-7.90327e-05
0.000231136
-9.16773e-05
0.000364152
-0.000100957
0.000483139
0.000492305
-0.000120099
-1.05785e-06
-0.000203275
9.68967e-06
-0.000204065
2.14726e-05
-0.000131045
2.49919e-05
-1.30882e-05
7.59149e-06
0.00011911
-1.87993e-05
0.000169954
-3.92034e-05
0.000155638
-5.86793e-05
0.000159291
-7.50882e-05
0.000247545
-5.51754e-05
0.000344239
-1.93353e-05
0.000447299
0.000470089
2.88065e-06
-3.23358e-05
-0.000170939
-4.9357e-05
-0.000187043
-4.87201e-05
-0.000131682
-3.56439e-05
-2.61644e-05
-3.48912e-05
0.000118358
-4.35899e-05
0.000178652
-5.97275e-05
0.000171775
-7.59722e-05
0.000175535
-7.13132e-05
0.000242886
-2.82239e-05
0.00030115
4.33414e-05
0.000375734
0.000411044
0.000102386
-6.61864e-05
-0.000104753
-0.00010445
-0.00014878
-0.000122883
-0.00011325
-0.00011401
-3.50368e-05
-9.62444e-05
0.000100592
-8.70503e-05
0.000169458
-8.84079e-05
0.000173133
-8.45771e-05
0.000171704
-6.08047e-05
0.000219114
-1.04113e-05
0.000250757
6.41005e-05
0.000301222
0.000332986
0.000142158
-7.98799e-05
-2.4873e-05
-0.000135789
-9.28706e-05
-0.000182176
-6.6863e-05
-0.000196923
-2.029e-05
-0.000169075
7.27438e-05
-0.000145142
0.000145525
-0.000119625
0.000147616
-8.90617e-05
0.000141141
-4.41185e-05
0.000174171
2.91662e-05
0.000177472
0.000115841
0.000214547
0.000242048
0.000206778
-8.44842e-05
5.96112e-05
-0.000147607
-2.97479e-05
-0.000209285
-5.18494e-06
-0.000231684
2.10951e-06
-0.000201629
4.26884e-05
-0.000146497
9.03934e-05
-8.94476e-05
9.05667e-05
-3.35628e-05
8.52563e-05
3.50704e-05
0.000105538
0.000106375
0.000106167
0.000191534
0.000129388
0.000138666
0.000294916
-3.48301e-05
9.44413e-05
-0.000109227
4.46486e-05
-0.000153119
3.87071e-05
-0.000173535
2.25258e-05
-0.000151547
2.07003e-05
-8.24597e-05
2.13062e-05
-5.2254e-06
1.33323e-05
6.77821e-05
1.22488e-05
0.000147817
2.55025e-05
0.000212133
4.18515e-05
0.000291721
4.98003e-05
4.00995e-05
0.000390288
5.09539e-05
4.34874e-05
2.98189e-05
6.57837e-05
4.15981e-05
2.69279e-05
6.63754e-05
-2.25148e-06
0.00010439
-1.73145e-05
0.000156722
-3.10258e-05
0.000211983
-4.19281e-05
0.000267895
-4.36638e-05
0.000329211
-3.58134e-05
0.00039463
-2.35675e-05
0.000454714
-1.02837e-05
0.000504048
-9.2341e-06
-0.00052133
0.000209454
-0.000631242
0.000109912
-0.000698023
6.67813e-05
-0.000708888
1.08653e-05
-0.000677697
-3.1191e-05
-0.000603922
-7.37751e-05
-0.000486581
-0.000117342
-0.00033706
-0.000149521
-0.000180292
-0.000156767
-2.36007e-05
-0.000156692
8.15574e-05
-0.000105158
8.15574e-05
-0.000537354
0.00028035
-0.000605425
0.000177983
-0.000650754
0.000112111
-0.000665402
2.5513e-05
-0.000648352
-4.82406e-05
-0.000600351
-0.000121776
-0.000507736
-0.000209957
-0.000380926
-0.000276332
-0.000231041
-0.000306652
-8.05227e-05
-0.00030721
1.57099e-05
-0.000201391
9.72673e-05
-0.000462608
0.00034906
-0.000527141
0.000242516
-0.000572045
0.000157015
-0.00059648
4.99482e-05
-0.00060044
-4.42806e-05
-0.000577031
-0.000145185
-0.000513391
-0.000273596
-0.00040971
-0.000380013
-0.000275703
-0.000440659
-0.000130144
-0.000452769
-2.67342e-05
-0.0003048
7.05331e-05
-0.000338974
0.000415793
-0.000403761
0.000307303
-0.000447211
0.000200464
-0.000489351
9.20884e-05
-0.000523622
-1.00097e-05
-0.000525958
-0.000142849
-0.000487904
-0.000311651
-0.000409023
-0.000458894
-0.000305737
-0.000543945
-0.000178207
-0.000580299
-8.19965e-05
-0.000401011
-1.14634e-05
-0.000152526
0.000448219
-0.000206629
0.000361406
-0.000265954
0.000259789
-0.000327615
0.000153749
-0.000374485
3.68603e-05
-0.000399537
-0.000117797
-0.000406162
-0.000305026
-0.000364934
-0.000500122
-0.000292392
-0.000616486
-0.000200515
-0.000672176
-0.000130782
-0.000470744
-0.000142246
7.37776e-06
0.000443722
-1.55492e-05
0.000384333
-6.19509e-05
0.000306191
-0.000118689
0.000210488
-0.000165047
8.32182e-05
-0.000204296
-7.85484e-05
-0.000246503
-0.000262819
-0.000258034
-0.000488591
-0.000236195
-0.000638325
-0.000172381
-0.00073599
-0.000104204
-0.000538921
-0.000246449
0.000137962
0.000408147
0.00015078
0.000371515
0.000132163
0.000324808
9.54104e-05
0.00024724
6.13349e-05
0.000117294
2.96948e-05
-4.69083e-05
-1.79335e-05
-0.000215191
-7.28664e-05
-0.000433658
-0.000147356
-0.000563836
-0.000149714
-0.000733631
-7.86721e-05
-0.000609963
-0.000325121
0.000204804
0.000345501
0.000245382
0.000330937
0.000268148
0.000302042
0.000283534
0.000231855
0.000277298
0.000123529
0.000253791
-2.34009e-05
0.00019574
-0.00015714
0.00011932
-0.000357238
-8.0645e-06
-0.000436452
-9.44912e-05
-0.000647205
-6.73015e-05
-0.000637153
-0.000392423
0.000299147
0.000253132
0.000367681
0.000262403
0.000430791
0.000238933
0.000485969
0.000176676
0.000496417
0.000113081
0.00045963
1.33866e-05
0.000394318
-9.18287e-05
0.000279968
-0.000242888
0.000127649
-0.000284132
-1.17412e-05
-0.000507814
-2.78511e-05
-0.000621043
-0.000420274
0.000399547
0.000148502
0.000481531
0.000180419
0.000552387
0.000168077
0.000595782
0.000133281
0.000613176
9.56876e-05
0.000607115
1.94479e-05
0.000560162
-4.48756e-05
0.000435721
-0.000118448
0.000295491
-0.000143901
0.000167605
-0.000379929
7.06478e-05
-0.000524086
-0.000349626
0.000489182
4.96078e-05
0.000575767
9.38341e-05
0.000643121
0.000100722
0.000707231
6.91707e-05
0.000768177
3.47413e-05
0.000787924
-2.9877e-07
0.000760704
-1.76555e-05
0.000675012
-3.27558e-05
0.000597593
-6.6483e-05
0.000459527
-0.000241862
0.000242718
-0.000307277
-0.000106908
0.000568766
-1.51102e-05
0.000667471
-4.87069e-06
0.000764354
3.83873e-06
0.000847136
-1.36108e-05
0.000903437
-2.15601e-05
0.000921637
-1.84983e-05
0.000919597
-1.56157e-05
0.000893211
-6.37041e-06
0.000822236
4.49223e-06
0.000588705
-8.33146e-06
0.000302975
-2.15469e-05
0.000196067
6.46007e-05
-6.46007e-05
0.00011291
-4.83093e-05
0.000148821
-3.59109e-05
0.000147987
8.33507e-07
0.000119382
2.86053e-05
7.7317e-05
4.20652e-05
3.53098e-05
4.20072e-05
4.73879e-07
3.48359e-05
-2.92589e-05
2.97328e-05
-9.05367e-05
6.12778e-05
-0.000225349
0.000134812
0.000227367
-0.000452716
7.05794e-05
-0.00013518
0.000134065
-0.000111795
0.000170462
-7.23079e-05
0.000165035
6.25999e-06
0.000126608
6.70329e-05
7.17514e-05
9.69214e-05
4.21165e-07
0.000113337
-7.4225e-05
0.000109482
-0.000167231
0.000122739
-0.000313876
0.000207923
-0.000489619
0.000310555
0.00034305
-0.000605302
8.08796e-05
-0.00021606
0.000150022
-0.000180937
0.000177007
-9.92929e-05
0.000168669
1.45984e-05
0.000121862
0.000113839
5.13522e-05
0.000167431
-2.54696e-05
0.000190159
-0.000118273
0.000202285
-0.000227338
0.000231805
-0.00033872
0.000319304
-0.000437986
0.000409821
0.000439681
-0.000534618
7.62947e-05
-0.000292354
0.000132422
-0.000237065
0.000144951
-0.000111822
0.000136476
2.30734e-05
0.000101162
0.000149153
3.89307e-05
0.000229663
-2.82755e-05
0.000257365
-0.00010797
0.000281979
-0.000191087
0.000314922
-0.000254728
0.000382945
-0.000315929
0.000471022
0.000513305
-0.000389552
4.62696e-05
-0.000338624
6.22176e-05
-0.000253013
4.37915e-05
-9.33955e-05
2.24908e-05
4.43741e-05
-4.08208e-06
0.000175726
-3.81401e-05
0.000263721
-8.50699e-05
0.000304295
-0.000130939
0.000327848
-0.000164394
0.000348377
-0.000169619
0.00038817
-0.000151187
0.00045259
0.000509945
-0.000147827
-2.15678e-05
-0.000317056
-6.45149e-05
-0.000210066
-9.60136e-05
-6.18968e-05
-0.00010474
5.3101e-05
-0.000110276
0.000181262
-0.000111209
0.000264654
-0.000119565
0.000312651
-0.000124266
0.000332549
-0.000126286
0.000350397
-0.000106352
0.000368235
-4.52322e-05
0.00039147
0.00043711
2.76028e-05
-4.70788e-05
-0.000269977
-0.000106716
-0.000150428
-0.000141003
-2.76104e-05
-0.00014268
5.47786e-05
-0.000128226
0.000166807
-0.000105382
0.00024181
-9.60581e-05
0.000303327
-9.20487e-05
0.00032854
-8.71423e-05
0.000345491
-6.73892e-05
0.000348482
-1.90287e-05
0.00034311
0.000365127
5.29547e-05
-6.48411e-05
-0.000205136
-0.000132753
-8.2516e-05
-0.000168389
8.02556e-06
-0.000162517
4.89065e-05
-0.000131262
0.000135552
-9.89122e-05
0.000209461
-8.59597e-05
0.000290375
-8.34112e-05
0.000325991
-8.57451e-05
0.000347825
-8.54135e-05
0.000348151
-7.90191e-05
0.000336716
0.000318985
-3.28772e-05
-9.80693e-05
-0.000107067
-0.000186381
5.79513e-06
-0.000233443
5.5088e-05
-0.000235276
5.07393e-05
-0.000218602
0.000118879
-0.000204919
0.000195778
-0.000197795
0.000283251
-0.000207081
0.000335277
-0.000218721
0.000359465
-0.000221821
0.000351251
-0.000208225
0.000323119
0.000253686
-0.000142926
-0.000182528
7.54614e-05
-0.000254621
7.78879e-05
-0.000297446
9.7913e-05
-0.000319028
7.23214e-05
-0.000332784
0.000132634
-0.000330384
0.000193378
-0.000302045
0.000254912
-0.000270656
0.000303887
-0.000230567
0.000319376
-0.000168605
0.000289289
-5.13123e-05
0.000205827
7.73366e-05
0.000125037
-0.000139909
0.00021537
-0.000225636
0.000163615
-0.000268056
0.000140334
-0.000284002
8.82667e-05
-0.00027454
0.000123172
-0.000246388
0.000165227
-0.000176274
0.000184798
-6.7163e-05
0.000194776
5.59135e-05
0.0001963
0.000209506
0.000135697
0.000397447
1.78846e-05
-9.13671e-05
0.000566151
1.40607e-05
0.000201309
-4.17386e-06
0.00018185
-3.04245e-05
0.000166584
-7.12098e-05
0.000129052
-6.5192e-05
0.000117154
-4.50938e-06
0.000104544
9.97977e-05
8.04908e-05
0.000248226
4.63469e-05
0.000420278
2.42475e-05
0.000585434
-2.94586e-05
0.0007032
-9.98812e-05
0.000773415
-0.000161582
-0.000674123
0.000221408
-0.000798269
0.000124145
-0.000870066
7.1797e-05
-0.000865242
-4.82385e-06
-0.000796675
-6.85663e-05
-0.000665647
-0.000131029
-0.000477637
-0.000188009
-0.000251504
-0.000226133
-2.10706e-06
-0.000249397
0.000191387
-0.000193494
0.000166578
2.48089e-05
0.000166578
-0.000695185
0.000311291
-0.000785579
0.000214539
-0.000835843
0.000122062
-0.000834924
-5.74368e-06
-0.000781421
-0.000122069
-0.000692155
-0.000220295
-0.000561864
-0.0003183
-0.000407373
-0.000380624
-0.000232975
-0.000423796
-4.45828e-05
-0.000381886
2.16158e-05
-4.13896e-05
0.000188194
-0.000629141
0.000405815
-0.000725818
0.000311215
-0.000780821
0.000177064
-0.000786237
-3.26934e-07
-0.000733185
-0.000175121
-0.000662689
-0.000290791
-0.000565971
-0.000415019
-0.000453681
-0.000492913
-0.00032489
-0.000552587
-0.000188459
-0.000518316
-1.5752e-05
-0.000214097
0.000172442
-0.00046713
0.000483392
-0.000539972
0.000384058
-0.000568209
0.000205301
-0.000563514
-5.02202e-06
-0.000530036
-0.000208599
-0.000473263
-0.000347564
-0.000400989
-0.000487292
-0.000322755
-0.000571148
-0.000209201
-0.000666141
-7.48346e-05
-0.000652683
4.37606e-05
-0.000332692
0.000216203
-0.000159163
0.000494727
-0.000173035
0.000397931
-0.000183086
0.000215351
-0.000193723
5.6158e-06
-0.000214298
-0.000188025
-0.000217896
-0.000343966
-0.000200686
-0.000504502
-0.000179177
-0.000592657
-0.000105657
-0.000739661
5.4765e-06
-0.000763816
5.68338e-05
-0.00038405
0.000273036
7.37609e-05
0.000448569
0.000103707
0.000367985
0.000116245
0.000202813
0.000102853
1.90075e-05
6.39723e-05
-0.000149143
1.33633e-05
-0.000293357
-4.0214e-05
-0.000450924
-7.92703e-05
-0.000553601
-3.54841e-05
-0.000783447
5.54162e-05
-0.000854716
6.3972e-05
-0.000392605
0.000337008
0.000132219
0.000369305
0.000204259
0.000295944
0.000250448
0.000156624
0.000250953
1.85029e-05
0.000212807
-0.000110997
0.00013774
-0.00021829
4.57714e-05
-0.000358956
-2.30818e-05
-0.000484748
-1.62242e-05
-0.000790305
4.0728e-05
-0.000911669
6.73741e-05
-0.000419252
0.000404383
7.09694e-05
0.000265458
0.000188709
0.000178205
0.000271083
7.42495e-05
0.000289053
5.33259e-07
0.000261092
-8.30356e-05
0.000186587
-0.000143785
7.68089e-05
-0.000249179
-1.73998e-05
-0.000390539
-9.38468e-05
-0.000713858
-0.000126342
-0.000879173
-2.84744e-05
-0.000517119
0.000375908
-2.49755e-06
0.00012503
0.000165211
1.04964e-05
0.00028676
-4.73003e-05
0.000348653
-6.13593e-05
0.000352551
-8.69333e-05
0.000315867
-0.000107101
0.000223329
-0.000156641
9.75949e-05
-0.000264805
-7.60824e-05
-0.00054018
-0.00025111
-0.000704146
-0.000167765
-0.000600464
0.000208144
0.000293119
-4.30509e-05
0.00040958
-0.000105965
0.000491642
-0.000129362
0.000569857
-0.000139575
0.000611671
-0.000128747
0.000617319
-0.00011275
0.000565773
-0.000105095
0.000410662
-0.000109694
7.43818e-05
-0.0002039
-0.00028422
-0.000345544
-0.000321004
-0.00056368
-0.00011286
0.000667586
-0.000144486
0.000717195
-0.000155574
0.000742085
-0.000154252
0.000746806
-0.000144296
0.000749903
-0.000131844
0.000753667
-0.000116513
0.000744589
-9.60165e-05
0.000706352
-7.14565e-05
0.000552795
-5.03432e-05
0.000268041
-6.07901e-05
1.08632e-05
-0.000306503
-0.000101997
0.000817368
-0.000188439
0.000849629
-0.000187834
0.000868523
-0.000173146
0.000874081
-0.000149853
0.000870274
-0.000128038
0.000859026
-0.000105265
0.000848696
-8.56869e-05
0.000828274
-5.10345e-05
0.000788133
-1.02015e-05
0.000693862
3.3481e-05
0.000335904
5.14549e-05
0.000233907
0.000158583
-0.000158583
0.000293845
-0.000135262
0.000416943
-0.000123099
0.000522914
-0.000105971
0.000608807
-8.58925e-05
0.000665101
-5.62941e-05
0.000690048
-2.49473e-05
0.000677378
1.26706e-05
0.000628103
4.92748e-05
0.000546605
8.14982e-05
0.000451159
9.54463e-05
0.000102336
0.000348823
0.000105672
-0.000264255
0.000210157
-0.000239747
0.000297457
-0.000210398
0.000376178
-0.000184692
0.000435325
-0.00014504
0.000479653
-0.000100621
0.000510643
-5.59382e-05
0.000519034
4.2803e-06
0.000503806
6.45025e-05
0.000455973
0.000129331
0.000389691
0.000161728
0.000172523
0.000319504
4.63506e-05
-0.000310605
9.60729e-05
-0.000289469
0.000130482
-0.000244807
0.000165926
-0.000220136
0.000192722
-0.000171836
0.000219612
-0.000127512
0.000243099
-7.94253e-05
0.000254009
-6.62917e-06
0.000260008
5.85033e-05
0.000251169
0.000138171
0.000219129
0.000193767
0.000205356
0.000186296
2.02547e-05
-0.00033086
3.91677e-05
-0.000308382
6.87704e-05
-0.00027441
0.000107584
-0.00025895
0.000141917
-0.000206169
0.000166357
-0.000151952
0.000156598
-6.96659e-05
0.000125843
2.41255e-05
9.77228e-05
8.66236e-05
8.02634e-05
0.00015563
6.84958e-05
0.000205535
0.000208439
6.54133e-05
1.78335e-05
-0.000348694
4.14593e-05
-0.000332008
7.70741e-05
-0.000310025
0.000142696
-0.000324572
0.000219595
-0.000283068
0.000276668
-0.000209025
0.00025125
-4.42474e-05
0.000152963
0.000122412
7.21563e-05
0.000167431
1.56551e-05
0.000212131
-8.45151e-06
0.000229641
0.000211381
-1.13936e-05
2.16217e-05
-0.000370315
5.73251e-05
-0.000367711
0.000102114
-0.000354814
0.000193392
-0.000415849
0.000317292
-0.000406968
0.000390642
-0.000282375
0.000339877
6.51769e-06
0.000203794
0.000258495
7.26919e-05
0.000298533
-2.22582e-05
0.000307081
-6.60833e-05
0.000273467
0.000215133
-6.9835e-05
-3.48501e-06
-0.00036683
9.86058e-06
-0.000381057
6.10441e-05
-0.000405997
0.000164731
-0.000519536
0.000300545
-0.000542783
0.000365548
-0.000347378
0.000272597
9.94687e-05
0.00013074
0.000400352
1.7175e-05
0.000412098
-6.30904e-05
0.000387346
-8.96643e-05
0.00030004
0.000212376
-8.69076e-05
-5.84508e-05
-0.000308379
-8.33784e-05
-0.000356129
-6.85989e-05
-0.000420777
-1.13492e-05
-0.000576786
7.57829e-05
-0.000629915
0.000106315
-0.00037791
4.8853e-05
0.000156931
-1.16443e-05
0.00046085
-6.04251e-05
0.000460879
-7.79754e-05
0.000404897
-8.84963e-05
0.000310561
0.000227468
-0.000103588
-0.000108905
-0.000199475
-0.000214222
-0.000250812
-0.000296928
-0.000338071
-0.000363666
-0.000510048
-0.000402014
-0.000591567
-0.000384272
-0.000395653
-0.000335949
0.000108608
-0.000282072
0.000406973
-0.000237049
0.000415855
-0.000193912
0.00036176
-0.000205667
0.000322316
0.000286859
-0.000265058
-0.000171277
-2.81973e-05
-0.000281389
-0.000140701
-0.000392031
-0.000227428
-0.000543685
-0.000358393
-0.000688658
-0.000446594
-0.000730326
-0.000353984
-0.000617878
-3.83978e-06
-0.000536403
0.000325497
-0.000466943
0.000346396
-0.000386928
0.000281745
-0.000355881
0.000291269
0.000278964
-0.000347986
-0.000138222
0.000110025
-0.000221179
-5.77435e-05
-0.000348866
-9.97415e-05
-0.000575563
-0.000131697
-0.000793792
-0.000228364
-0.000934121
-0.000213656
-0.000795048
-0.000142912
-0.000585511
0.00011596
-0.000494838
0.000255723
-0.000420545
0.000207452
-0.000355005
0.000225728
0.000231147
-0.000307188
-8.65217e-05
0.000196546
-0.000192364
4.80986e-05
-0.000255261
-3.68447e-05
-0.000488485
0.000101527
-0.000780911
6.40615e-05
-0.000989743
-4.82397e-06
-0.000948376
-0.000184279
-0.000591897
-0.000240519
-0.000388269
5.20951e-05
-0.000323118
0.000142301
-0.000276035
0.000178646
-0.000232523
0.000187635
0.000258897
8.99253e-05
0.00019779
6.11074e-05
0.000158484
3.93056e-05
0.000123676
3.48083e-05
9.01432e-05
3.3533e-05
8.54166e-05
4.72656e-06
8.05109e-05
4.90579e-06
3.79848e-05
4.25261e-05
2.98864e-06
3.49962e-05
-5.25032e-06
8.23895e-06
-6.05239e-06
8.0207e-07
-6.05239e-06
0.000251588
0.000157842
0.000188682
0.000124013
0.000129175
9.8812e-05
8.17637e-05
8.222e-05
5.77832e-05
5.75135e-05
4.08313e-05
2.16785e-05
2.80456e-05
1.76915e-05
2.37229e-05
4.68487e-05
7.24378e-06
5.14753e-05
-1.18954e-05
2.73782e-05
1.536e-06
-1.26294e-05
-4.51639e-06
0.00016013
0.000184008
0.000127879
0.000156264
9.69569e-05
0.000129734
8.21968e-05
9.698e-05
7.83766e-05
6.13337e-05
7.75051e-05
2.255e-05
7.77056e-05
1.74911e-05
8.68209e-05
3.77333e-05
7.83059e-05
5.99903e-05
5.34225e-05
5.22615e-05
3.36793e-05
7.1139e-06
2.91629e-05
7.4829e-05
0.000174592
8.28929e-05
0.0001482
8.60425e-05
0.000126585
9.28061e-05
9.02165e-05
0.000125398
2.87416e-05
0.000166708
-1.876e-05
0.000193589
-9.3893e-06
0.000190099
4.12233e-05
0.000150206
9.98824e-05
0.000104012
9.84565e-05
4.83352e-06
0.000106292
3.39964e-05
-6.53884e-06
0.000169737
2.74501e-05
0.000114211
8.96678e-05
6.4367e-05
0.000157825
2.20597e-05
0.000218558
-3.19921e-05
0.000264161
-6.43629e-05
0.000278856
-2.40844e-05
0.000239045
8.10342e-05
0.00016816
0.000170767
8.38812e-05
0.000182736
-2.76495e-05
0.000217823
6.34688e-06
-2.87801e-05
0.000128682
3.83264e-05
4.71046e-05
8.85438e-05
1.41496e-05
0.000106633
3.97072e-06
0.000102013
-2.73719e-05
0.000123104
-8.54548e-05
0.000187797
-8.87767e-05
0.000171945
9.68863e-05
5.85169e-05
0.000284195
2.33993e-05
0.000217853
3.93703e-05
0.000201852
4.57171e-05
-7.33018e-05
0.000115077
-0.000118875
9.26776e-05
-0.000222805
0.00011808
-0.00030805
8.92155e-05
-0.000294419
-4.10033e-05
-0.00021293
-0.000166943
-4.0126e-05
-0.000261581
0.000124266
-6.75061e-05
9.28834e-05
0.000315578
6.78053e-05
0.000242931
9.07214e-05
0.000178936
0.000136439
-0.000171408
0.000182896
-0.000285783
0.000207053
-0.000366816
0.000199113
-0.000372017
9.44164e-05
-0.00036285
-5.01695e-05
-0.000325601
-0.000204192
-0.000235416
-0.000351766
3.11397e-05
-0.000334062
0.000245088
0.00010163
0.000143514
0.000344505
7.82207e-05
0.000244228
0.000214659
-0.000342181
0.000260019
-0.000398648
0.00026352
-0.000434851
0.000235316
-0.000453517
0.000113082
-0.000455469
-4.82178e-05
-0.000392487
-0.000267174
-0.000279113
-0.00046514
-5.4522e-05
-0.000558653
0.000192698
-0.00014559
8.29284e-05
0.000454275
1.36976e-06
0.000325787
0.000216029
-0.000350708
0.00026274
-0.000369393
0.000282206
-0.000392468
0.000258391
-0.000415192
0.000135806
-0.000435562
-2.78472e-05
-0.000446276
-0.00025646
-0.000458757
-0.00045266
-0.000393191
-0.000624219
-0.00010612
-0.000432661
-1.31893e-05
0.000361345
-3.19108e-05
0.000344509
0.000184118
-0.000274329
0.000229882
-0.000265616
0.000273493
-0.000228156
0.000220931
-0.000177063
8.47121e-05
-0.00017952
-2.53902e-05
-0.000299949
-0.00013603
-0.000477468
-0.000275141
-0.000616096
-0.000485591
-0.000533732
-0.000515025
-0.00019939
2.70029e-05
-8.50698e-06
0.000153626
0.000175611
-0.000158543
0.000155901
-8.4676e-05
0.000199626
-6.6718e-06
0.000142927
3.38514e-05
4.4189e-05
5.61686e-05
-4.77073e-05
4.38699e-05
-0.000123732
-8.1866e-05
-0.000149406
-0.00038631
-0.000181147
-0.000639621
-0.000261714
-0.000390214
-0.000222404
-9.34278e-05
-0.000143161
8.21834e-05
-2.12647e-06
2.12647e-06
1.47367e-06
-3.60014e-06
2.62023e-06
-1.14657e-06
9.02373e-06
-6.40349e-06
1.182e-05
-2.79624e-06
1.0013e-05
1.807e-06
4.99303e-06
5.01993e-06
-2.38203e-06
7.37506e-06
-1.88834e-05
1.65013e-05
-3.96717e-05
2.07883e-05
-6.8293e-05
2.86213e-05
6.74674e-05
-0.00013576
-2.66163e-06
4.7881e-06
-3.67128e-06
-2.59049e-06
-5.86893e-06
1.05108e-06
-9.49785e-06
-2.77456e-06
-1.89389e-05
6.64479e-06
-3.08949e-05
1.3763e-05
-5.08735e-05
2.49985e-05
-7.54074e-05
3.1909e-05
-0.000111578
5.26715e-05
-0.00017121
8.04207e-05
-0.000263422
0.000120833
0.000165696
-0.00036165
-1.2612e-06
6.0493e-06
1.39387e-07
-3.99107e-06
1.25301e-06
-6.25381e-08
-5.69568e-07
-9.51988e-07
-1.27339e-05
1.88091e-05
-3.16762e-05
3.27053e-05
-6.28364e-05
5.61587e-05
-9.9534e-05
6.86065e-05
-0.000134815
8.79528e-05
-0.000192542
0.000138147
-0.000282689
0.000210981
0.000232383
-0.000349377
6.4372e-06
-3.87897e-07
1.06144e-05
-8.16826e-06
1.453e-05
-3.97813e-06
1.79698e-05
-4.39177e-06
8.74389e-06
2.8035e-05
-1.40191e-05
5.54683e-05
-5.25476e-05
9.46872e-05
-0.000105093
0.000121152
-0.000155581
0.000138441
-0.000205929
0.000188495
-0.000263452
0.000268504
0.000277695
-0.000308764
-5.68037e-06
5.29247e-06
4.57889e-07
-1.43065e-05
1.10922e-05
-1.46124e-05
2.34008e-05
-1.67004e-05
2.43281e-05
2.71078e-05
-5.71343e-07
8.03677e-05
-5.04036e-05
0.000144519
-0.000108946
0.000179694
-0.000162518
0.000192013
-0.00019245
0.000218427
-0.000203712
0.000279766
0.000297033
-0.000223049
-3.88387e-06
9.17633e-06
8.79382e-06
-2.69842e-05
3.11881e-05
-3.70067e-05
4.42435e-05
-2.97557e-05
4.14198e-05
2.99314e-05
6.36313e-06
0.000115424
-4.76044e-05
0.000198487
-0.000104345
0.000236435
-0.000148149
0.000235816
-0.000156665
0.000226944
-0.000137273
0.000260373
0.000279405
-0.000119644
4.07657e-06
5.09976e-06
6.31335e-06
-2.9221e-05
1.61619e-05
-4.68553e-05
1.46921e-05
-2.8286e-05
-1.49041e-05
5.95277e-05
-6.59711e-05
0.000166491
-0.000116276
0.000248792
-0.000145738
0.000265897
-0.000154973
0.000245052
-0.000142408
0.000214378
-9.82034e-05
0.000216168
0.000226406
-4.52052e-05
-3.01995e-05
3.52992e-05
-5.81895e-05
-1.23099e-06
-9.38148e-05
-1.123e-05
-0.000138709
1.66084e-05
-0.00019158
0.000112399
-0.000216108
0.000191019
-0.00021064
0.000243324
-0.000195392
0.000250649
-0.000169669
0.000219328
-0.000137459
0.000182168
-9.12827e-05
0.000169993
0.000155227
-2.01038e-05
-4.33766e-05
7.86759e-05
-0.000106036
6.14282e-05
-0.000186957
6.96908e-05
-0.000268745
9.83965e-05
-0.000315151
0.000158805
-0.000298921
0.000174789
-0.00023884
0.000183243
-0.000177517
0.000189326
-0.00013236
0.000174171
-9.874e-05
0.000148548
-6.1363e-05
0.000132616
9.18861e-05
1.97834e-06
-4.58892e-05
0.000124565
-7.43865e-05
8.99256e-05
-0.000134724
0.000130028
-0.00020113
0.000164803
-0.000229205
0.000186879
-0.000219699
0.000165284
-0.000170695
0.000134239
-0.000106182
0.000124813
-5.42989e-05
0.000122288
-1.86658e-05
0.000112915
2.02174e-05
9.37324e-05
3.9608e-05
7.24955e-05
-1.17012e-05
0.000136266
-1.04308e-05
8.86551e-05
-1.49243e-05
0.000134521
-2.58643e-05
0.000175743
-1.29412e-05
0.000173956
1.85077e-05
0.000133835
6.45672e-05
8.81798e-05
0.000118677
7.07038e-05
0.000166323
7.4641e-05
0.00020234
7.68988e-05
0.000243875
5.21974e-05
3.94571e-06
0.000279537
6.47731e-05
7.14932e-05
8.93885e-05
6.40397e-05
0.000128475
9.54351e-05
0.00016401
0.000140208
0.000198371
0.000139595
0.000234962
9.72437e-05
0.000270787
5.23543e-05
0.000308505
3.29865e-05
0.000340709
4.24363e-05
0.000363434
5.41742e-05
0.000380096
3.55352e-05
0.000381673
2.36846e-06
-0.000243903
0.000108142
-0.000336509
9.26063e-05
-0.000367595
3.10856e-05
-0.000358641
-8.9535e-06
-0.000314722
-4.3919e-05
-0.000242867
-7.18552e-05
-0.0001528
-9.00666e-05
-4.50831e-05
-0.000107717
6.02677e-05
-0.000105351
0.000105211
-4.4943e-05
7.03627e-05
3.4848e-05
7.03627e-05
-0.000404484
0.000150976
-0.000416002
0.000104125
-0.000410663
2.5746e-05
-0.000390133
-2.94836e-05
-0.000346425
-8.76264e-05
-0.000285946
-0.000132334
-0.00021329
-0.000162723
-0.000136569
-0.000184438
-5.08959e-05
-0.000191024
1.74379e-05
-0.000113277
9.52261e-06
4.27633e-05
7.98853e-05
-0.000397531
0.000199131
-0.000424469
0.000131062
-0.000428579
2.98564e-05
-0.000404784
-5.32787e-05
-0.000355829
-0.000136581
-0.000295228
-0.000192935
-0.000223922
-0.000234029
-0.000148616
-0.000259743
-8.27452e-05
-0.000256895
-7.62575e-06
-0.000188396
7.06018e-06
2.80774e-05
8.69455e-05
-0.000348131
0.000238497
-0.000377123
0.000160055
-0.000385062
3.77948e-05
-0.000354999
-8.33413e-05
-0.000298092
-0.000193488
-0.000228416
-0.000262612
-0.000150352
-0.000312093
-6.44326e-05
-0.000345663
-8.92236e-07
-0.000320435
3.4188e-05
-0.000223477
2.43517e-05
3.79137e-05
0.000111297
-0.000242924
0.000258372
-0.000256518
0.000173649
-0.000252229
3.35054e-05
-0.000224097
-0.000111473
-0.000185839
-0.000231746
-0.000133422
-0.000315029
-7.00872e-05
-0.000375428
1.10857e-06
-0.000416859
6.79729e-05
-0.0003873
7.47166e-05
-0.00023022
5.0599e-05
6.20314e-05
0.000161896
-9.32163e-05
0.000231944
-6.65933e-05
0.000147026
-4.35607e-05
1.04728e-05
-2.87475e-05
-0.000126286
-2.98187e-05
-0.000230675
-3.34563e-05
-0.000311391
-1.46373e-05
-0.000394247
3.51411e-05
-0.000466637
9.54305e-05
-0.000447589
8.144e-05
-0.00021623
4.71917e-05
9.62797e-05
0.000209088
1.17031e-05
0.000175036
6.2879e-05
9.58501e-05
9.79553e-05
-2.46035e-05
9.94645e-05
-0.000127796
8.17895e-05
-0.000213
4.99482e-05
-0.00027955
1.09574e-05
-0.000355256
-2.90252e-05
-0.000426654
-4.17932e-05
-0.000434821
-5.2409e-05
-0.000205614
2.49484e-07
4.36213e-05
0.000209337
4.98804e-05
0.000105051
0.000110402
3.53287e-05
0.000150367
-6.45688e-05
0.000157697
-0.000135125
0.0001289
-0.000184203
6.58727e-05
-0.000216523
-2.99402e-05
-0.000259443
-0.000156724
-0.00029987
-0.000251409
-0.000340137
-0.000227039
-0.000229984
-0.000103781
-7.96367e-05
0.000105557
7.53044e-05
3.17255e-05
0.000130698
-2.00648e-05
0.000169084
-0.000102955
0.00018235
-0.000148391
0.000148213
-0.000150065
7.93684e-05
-0.000147679
-4.3574e-06
-0.000175717
-0.000128994
-0.000175234
-0.000257966
-0.000211165
-0.000272107
-0.000215844
-0.000193979
-0.000157765
-8.8422e-05
0.000138052
-3.38314e-05
0.000192057
-7.40693e-05
0.000210885
-0.000121783
0.000202118
-0.000139625
0.000170419
-0.000118366
0.000144659
-0.000121918
0.000105836
-0.000136894
4.32193e-05
-0.000112617
-5.94877e-05
-0.000108458
-0.000123678
-0.000151653
-0.000106543
-0.0001749
-0.000194965
0.000295971
-5.02652e-05
0.000302851
-8.09495e-05
0.000277735
-9.66674e-05
0.000241604
-0.000103494
0.000224956
-0.000101719
0.000213353
-0.000110315
0.000175046
-9.85869e-05
0.000117461
-5.50318e-05
6.34429e-05
-5.44399e-05
1.79286e-05
-0.000106139
3.13763e-06
-0.000160109
-0.000191827
0.00037607
-4.46618e-05
0.00036497
-6.98492e-05
0.00033709
-6.87878e-05
0.000306853
-7.32567e-05
0.00028116
-7.6025e-05
0.000229792
-5.89473e-05
0.000171069
-3.98639e-05
0.000137852
-2.18155e-05
0.000117234
-3.3822e-05
7.29016e-05
-6.1806e-05
3.87618e-05
-0.000125969
-0.000153066
0.00020289
-8.2678e-05
-7.6725e-05
0.000347244
-7.85696e-05
0.000453669
-7.94978e-05
0.000531406
-7.99881e-05
0.00059048
-7.63881e-05
0.000630012
-7.05582e-05
0.000652786
-6.47023e-05
0.000666891
-5.7769e-05
0.000679649
-4.85713e-05
0.00069644
-4.03583e-05
0.000719943
-3.37865e-05
-3.0162e-05
0.000740871
0.00077118
-0.000115033
-0.000738825
0.000797542
-0.000104932
0.000814544
-9.64995e-05
0.000823264
-8.87091e-05
0.00082825
-8.13738e-05
0.000831258
-7.35663e-05
0.000833294
-6.6738e-05
0.000834649
-5.9124e-05
0.000836039
-4.99614e-05
0.000838903
-4.32226e-05
0.000843405
-3.82876e-05
-3.66476e-05
0.00084989
0.000893227
-0.00011969
-0.000888569
0.000896286
-0.00010799
0.00089869
-9.8904e-05
0.000901194
-9.12129e-05
0.000903652
-8.38317e-05
0.000905898
-7.58124e-05
0.000908223
-6.90625e-05
0.000911034
-6.19356e-05
0.000915729
-5.46561e-05
0.000922429
-4.99227e-05
0.000930006
-4.58645e-05
-4.21579e-05
0.000935516
0.000962786
-0.000952737
-0.00012974
0.000972777
-0.000117982
0.000981462
-0.000107589
0.000988272
-9.80231e-05
0.000993478
-8.90372e-05
0.000996169
-7.85032e-05
0.000996581
-6.94752e-05
0.000994114