/*--------------------------------*- C++ -*----------------------------------*\
| =========                 |                                                 |
| \\      /  F ield         | OpenFOAM: The Open Source CFD Toolbox           |
|  \\    /   O peration     | Version:  2212                                  |
|   \\  /    A nd           | Website:  www.openfoam.com                      |
|    \\/     M anipulation  |                                                 |
\*---------------------------------------------------------------------------*/
FoamFile
{
    version     2.0;
    format      ascii;
    arch        "LSB;label=32;scalar=64";
    class       surfaceScalarField;
    location    "1.5";
    object      phi.oil;
}
// * * * * * * * * * * * * * * * * * * * * * * * * * * * * * * * * * * * * * //

dimensions      [0 3 -1 0 0 0 0];

oriented        oriented;

internalField   nonuniform List<scalar> 
6392
(
3.33301e-05
-3.10912e-05
7.42018e-05
-3.83981e-05
0.000104389
-2.72681e-05
0.000124002
-1.4988e-05
0.000135394
-9.20911e-06
0.000151025
-1.25799e-05
0.000162408
-7.54813e-06
0.000154083
1.34388e-05
0.0001327
2.67766e-05
7.33788e-05
5.71799e-05
-0.000103336
0.000153942
0.000260804
-0.000381212
3.51701e-05
-8.0702e-05
8.1835e-05
-8.53724e-05
0.00011003
-5.48128e-05
0.000121765
-2.24584e-05
0.000110321
4.22515e-06
9.1038e-05
7.91025e-06
7.33116e-05
1.97911e-05
3.0321e-05
6.64403e-05
-4.82157e-05
0.000110003
-0.00017839
0.000200431
-0.00034294
0.000327814
0.000351815
-0.000469402
2.95887e-05
-0.000123662
7.63542e-05
-0.000125173
9.98705e-05
-7.58602e-05
0.000104374
-1.81141e-05
8.09156e-05
3.19727e-05
3.45878e-05
5.27941e-05
-7.94176e-06
6.94471e-05
-4.32789e-05
0.000110132
-0.000103145
0.000170446
-0.000197194
0.000308063
-0.000323926
0.000434255
0.000429428
-0.000415536
2.64004e-05
-0.000165942
7.07839e-05
-0.000163071
9.43745e-05
-9.718e-05
9.69915e-05
-1.04549e-05
6.69491e-05
6.52045e-05
1.89194e-05
9.99839e-05
-2.12902e-05
0.000113472
-4.57216e-05
0.000142802
-8.76773e-05
0.000218329
-0.000148667
0.000369206
-0.000241563
0.000496672
0.000494522
-0.000317065
1.40306e-05
-0.000190846
4.45426e-05
-0.000184782
6.92044e-05
-0.000112016
7.97318e-05
-4.20977e-06
4.95695e-05
0.000105386
4.2177e-06
0.000150475
-2.94417e-05
0.000149693
-4.06641e-05
0.000160477
-6.4699e-05
0.000251686
-8.74944e-05
0.000388706
-0.000123145
0.000519715
0.000533948
-0.000174937
-1.49301e-05
-0.000187342
-7.73451e-07
-0.000191338
1.54126e-05
-0.00011874
3.13338e-05
-2.70047e-06
2.14162e-05
0.000127276
-1.5998e-07
0.00017971
-1.95024e-05
0.000172881
-3.92139e-05
0.000188329
-5.59591e-05
0.000284067
-4.87065e-05
0.000385118
-3.50933e-05
0.000498494
0.000532699
-4.98624e-05
-4.36318e-05
-0.000150432
-5.897e-05
-0.000168277
-5.47612e-05
-0.00011259
-2.90595e-05
-7.51754e-06
-2.06465e-05
0.000133522
-2.37219e-05
0.000193673
-3.03173e-05
0.000192971
-4.61078e-05
0.000212992
-4.42172e-05
0.000294247
-1.51303e-05
0.000368586
3.42855e-05
0.000446004
0.000497328
6.17699e-05
-7.43769e-05
-8.62903e-05
-0.000112849
-0.000129166
-0.000129093
-9.12357e-05
-0.000109516
-1.25409e-05
-8.36986e-05
0.000122998
-7.05943e-05
0.000186235
-5.9506e-05
0.000163421
-5.47351e-05
0.000146475
-3.0508e-05
0.000192918
7.97399e-06
0.00029528
5.82445e-05
0.00040709
0.000459791
0.000107672
-8.35851e-05
-5.19938e-06
-0.000140836
-6.9656e-05
-0.000185243
-3.20445e-05
-0.000191419
4.90497e-05
-0.000124065
8.74518e-05
-3.2886e-05
9.10284e-05
2.41938e-05
5.49489e-05
9.51584e-05
-3.3771e-06
0.000107437
5.94413e-06
8.51404e-05
9.10622e-05
0.000105049
0.000184376
0.000265765
0.000158628
-8.57821e-05
8.25498e-05
-0.000140722
7.24595e-05
-6.6009e-05
3.84572e-05
-5.68168e-05
4.23047e-05
5.93563e-05
1.08581e-05
0.000158061
-4.91855e-05
0.000237596
-9.92305e-05
0.000298994
-0.000139762
0.000335878
-0.000144456
0.000353524
-0.000109229
0.000352259
-6.16395e-05
7.61908e-06
0.000323628
0.000128548
5.915e-05
0.000129805
8.08516e-05
0.0002666
1.09687e-05
0.000336538
-4.89512e-05
0.000370627
-8.75913e-05
0.000399141
-0.000112353
0.000428226
-0.000129008
0.000464766
-0.000144685
0.00050088
-0.00015289
0.000519033
-0.000143651
0.000520324
-0.000119105
-8.07195e-05
0.000515141
0.000451208
-1.54883e-06
0.000476646
-1.7522e-05
0.000507334
-3.74297e-05
0.000541109
-5.96214e-05
0.000569227
-7.3038e-05
0.000590724
-7.75631e-05
0.000608396
-7.77372e-05
0.000624645
-7.81842e-05
0.000640937
-7.99048e-05
0.000655723
-8.16637e-05
0.000659544
-7.69272e-05
0.000650142
-6.1225e-05
-0.000554874
0.000239277
-0.000605982
0.000174136
-0.000619672
0.000135911
-0.000592414
9.39053e-05
-0.000537754
7.03753e-05
-0.000467539
5.00543e-05
-0.000382847
3.39535e-05
-0.000279849
1.71679e-05
-0.000174832
-5.80114e-07
-6.70047e-05
-2.04242e-05
1.63255e-05
-3.36356e-05
6.16601e-05
-0.000536046
0.000292921
-0.000557972
0.000220051
-0.000556385
0.00016918
-0.000519688
0.000116253
-0.000460774
8.53955e-05
-0.000390495
6.91332e-05
-0.000312781
5.49181e-05
-0.000232631
3.95069e-05
-0.000154921
1.60727e-05
-7.55941e-05
-8.0666e-06
-1.54695e-05
-1.67437e-05
6.56399e-05
-0.000471571
0.000362041
-0.000492012
0.000283436
-0.000493003
0.000219141
-0.000462862
0.000152782
-0.000410536
0.000109547
-0.000345303
8.15724e-05
-0.000267741
4.66391e-05
-0.000189404
2.00767e-05
-0.000117886
-7.39183e-06
-4.40627e-05
-3.14735e-05
3.68589e-06
-4.18625e-05
5.88177e-05
-0.00037276
0.000436551
-0.000395803
0.000348642
-0.000396804
0.000267606
-0.000385092
0.000192843
-0.000363702
0.00013593
-0.000329013
5.76279e-05
-0.000264396
-3.89382e-05
-0.00017635
-8.14476e-05
-9.64949e-05
-9.6707e-05
-4.0975e-05
-9.59798e-05
1.32896e-05
-9.97587e-05
4.62175e-05
-0.000218264
0.000491769
-0.000247645
0.000412379
-0.000262932
0.000330133
-0.000273274
0.000257544
-0.000293954
0.00017768
-0.000316116
2.64522e-05
-0.000297556
-0.000169278
-0.000212428
-0.000238625
-0.000108308
-0.000224447
-3.26267e-05
-0.000161961
4.07136e-05
-0.000118218
1.20889e-05
-7.51411e-05
0.000510989
-0.000101556
0.000456577
-0.000126594
0.000395655
-0.000161102
0.00032987
-0.000212469
0.000222322
-0.000251776
3.0645e-05
-0.000253692
-0.000201501
-0.000180068
-0.000360234
-9.64944e-05
-0.000231164
-8.31065e-06
-0.000210863
5.23897e-05
-0.000153889
-0.000106661
6.49229e-05
0.000505839
5.54052e-05
0.000481481
2.11003e-05
0.000451183
-3.53417e-05
0.000385472
-7.77021e-05
0.000254466
-2.48884e-05
6.11466e-05
2.69723e-05
-0.000126075
1.92152e-05
-0.000368803
0.000130672
-0.000422355
2.88318e-05
-0.000219191
5.15384e-05
-0.000217288
-0.000231333
0.000136723
0.000485483
0.000140524
0.000483871
0.000115431
0.000471513
8.0608e-05
0.000403872
9.34086e-05
0.000277371
0.000173415
0.000110033
0.00022868
-3.41687e-05
0.00016318
-0.000251932
0.000146191
-0.000395335
8.65546e-05
-0.000254768
7.87351e-05
-0.000240615
-0.000292542
0.00020215
0.000448734
0.000227128
0.000476522
0.000242676
0.000464161
0.000265561
0.000391953
0.000308368
0.000289379
0.000366161
0.000142682
0.000405035
2.30573e-05
0.000355794
-0.000161251
0.000289133
-0.000169279
0.00022365
-0.000176443
0.000180272
-0.000160024
-0.000302198
0.000308434
0.000196581
0.000353218
0.000262332
0.000386048
0.000293704
0.000414809
0.000277964
0.0004583
0.000214146
0.000532604
0.000115931
0.000562128
9.69219e-05
0.000483281
2.88293e-05
0.000389041
2.11269e-05
0.000371172
-2.32996e-06
0.000298433
-5.38461e-05
-0.000245294
0.00049777
-3.81131e-05
0.000476544
4.03284e-05
0.00047363
0.000169402
0.00058549
0.000211274
0.000686422
0.000194749
0.000697436
0.000164113
0.000674272
0.000188074
0.000617399
0.000180482
0.00057798
0.000153249
0.000547394
7.00986e-05
0.000426022
-3.11629e-05
-7.66511e-05
0.000631386
-3.57688e-05
0.000624124
1.39062e-05
0.000647794
0.000120158
0.000684892
0.000146077
0.000705535
0.000154158
0.00070627
0.000149226
0.000700227
0.000130789
0.000689854
0.000110943
0.000671236
9.15282e-05
0.000601933
6.23403e-05
0.000457723
4.15931e-06
0.000129079
5.04517e-05
-6.04227e-05
9.90016e-05
-4.86528e-05
0.000136738
-3.84624e-05
0.000150696
-5.50247e-06
0.000132218
2.25087e-05
9.5644e-05
3.8927e-05
5.12737e-05
4.35606e-05
1.28249e-05
4.077e-05
-1.79339e-05
3.68424e-05
-7.05911e-05
6.91323e-05
-0.000196181
0.000140359
0.000237182
-0.000388879
4.84116e-05
-0.000136138
0.00011951
-0.000117536
0.000160345
-8.1002e-05
0.000170857
-6.95739e-06
0.000142743
5.32929e-05
9.53645e-05
8.53987e-05
2.45209e-05
0.000105742
-5.40552e-05
0.00010647
-0.000145385
0.000122231
-0.000287625
0.000206932
-0.000431998
0.000314521
0.000338229
-0.000502639
5.60386e-05
-0.000217144
0.000138533
-0.000187034
0.000167591
-0.00010839
0.000175666
2.75669e-06
0.000135957
0.000102527
7.19916e-05
0.000157394
-2.19779e-06
0.000183014
-9.36106e-05
0.000197945
-0.000201026
0.000230134
-0.000312426
0.000316874
-0.000405758
0.000410079
0.000429274
-0.000460185
4.76846e-05
-0.000289954
0.000118591
-0.000239132
0.00013498
-0.000117064
0.000144996
1.52495e-05
0.000116718
0.000140525
5.93477e-05
0.000223395
-4.49014e-06
0.000252764
-7.50103e-05
0.000278382
-0.00015926
0.000313331
-0.000234492
0.000377257
-0.000304954
0.000466479
0.00051208
-0.000338178
1.72547e-05
-0.000323091
4.55709e-05
-0.000239433
3.77554e-05
-7.9753e-05
3.59125e-05
5.57843e-05
1.58102e-05
0.00018405
-1.62524e-05
0.000270262
-6.03357e-05
0.000310395
-8.9939e-05
0.000333519
-0.000123308
0.000356873
-0.000143999
0.00039341
-0.000161769
0.00045971
0.000530106
-0.000175864
-4.42011e-05
-0.000295331
-7.38547e-05
-0.000186937
-9.79575e-05
-3.70695e-05
-9.38885e-05
7.69834e-05
-9.36366e-05
0.000201621
-9.2007e-05
0.00028123
-0.000100755
0.000326612
-8.28673e-05
0.00034591
-8.4809e-05
0.000364761
-6.56845e-05
0.000383775
-3.47306e-05
0.000405179
0.000469725
-3.96964e-06
-6.35345e-05
-0.000246696
-0.000112936
-0.000127535
-0.000143252
-3.91611e-06
-0.000135285
7.78067e-05
-0.000116452
0.000186864
-9.09915e-05
0.000257503
-8.13099e-05
0.000316407
-6.529e-05
0.00034127
-5.05545e-05
0.000361415
-2.91483e-05
0.000370959
1.16467e-05
0.000370592
0.000412653
5.99214e-05
-7.9438e-05
-0.000178707
-0.000138285
-5.42976e-05
-0.000170853
4.54589e-05
-0.00015743
8.89965e-05
-0.000122545
0.000169343
-8.6722e-05
0.000237025
-7.32199e-05
0.000315234
-6.23856e-05
0.00035177
-5.1093e-05
0.000376461
-3.93839e-05
0.000377183
-1.861e-05
0.000362819
0.000361673
2.76514e-05
-0.000110486
-7.73424e-05
-0.000180358
3.7629e-05
-0.000232564
9.89986e-05
-0.000230673
0.000110207
-0.00021229
0.0001746
-0.000194672
0.000248152
-0.000189617
0.000333358
-0.000197168
0.000366525
-0.000195365
0.000369586
-0.00017655
0.000309574
-0.0001477
0.000236667
0.000180497
-7.91457e-05
-0.000189931
9.02414e-05
-0.000251757
0.000140051
-0.000289317
0.000128264
-0.000305166
8.83189e-05
-0.000317137
8.35737e-05
-0.00030685
0.000101118
-0.000192233
0.000101695
-0.000194863
0.000155566
-0.000101121
0.000193533
8.58824e-05
0.000149996
0.000293564
9.17282e-05
4.27055e-05
0.0004578
0.000240336
0.000160695
9.98262e-05
0.000162118
0.000106576
0.000112605
5.74967e-05
8.0182e-05
0.000235931
3.40599e-05
0.000336052
9.43601e-06
0.000429593
-3.29801e-05
0.000507746
-5.64715e-05
0.000603285
-2.19752e-05
0.000691871
-4.43007e-07
0.000724257
-3.321e-07
-1.66517e-05
0.000733502
0.000717072
0.000145162
0.000731095
0.000142309
0.000729495
0.000144195
0.000710298
0.000134548
0.000691311
0.000106925
0.000686684
7.72923e-05
0.000699646
4.92922e-05
0.000725657
2.02403e-05
0.000758314
7.11068e-06
0.000783131
1.39089e-06
0.000795398
-2.61272e-05
0.000805117
-6.63643e-05
-0.000503853
0.000247635
-0.000491159
0.000210958
-0.000448354
0.000210426
-0.000407014
0.000200797
-0.000368253
0.00019593
-0.000303348
0.000180989
-0.000208934
0.000147094
-0.000115129
8.33225e-05
-5.36453e-05
1.6792e-05
-5.77237e-05
-2.82491e-05
-7.40438e-05
-3.5125e-05
4.42871e-05
-0.000508951
0.000312381
-0.000449977
0.00027289
-0.000372351
0.000263973
-0.000309534
0.000266466
-0.000279774
0.000263869
-0.000255549
0.000225861
-0.000203362
0.000127371
-0.000147829
1.63212e-05
-0.000121851
-6.74887e-05
-0.000103113
-0.000149063
-6.26151e-05
-0.000181759
-1.67867e-05
-0.000438066
0.00040696
-0.000327604
0.000388923
-0.000234888
0.000384064
-0.000234415
0.000377695
-0.000282274
0.000333246
-0.000333352
0.000210564
-0.000344471
2.8204e-05
-0.000291358
-7.87295e-05
-0.000184833
-0.000145778
-5.18076e-05
-0.000235333
2.28342e-05
-0.000305175
-8.59752e-05
-0.000223213
0.000503495
-0.000174163
0.000501949
-0.00019468
0.000490456
-0.000280158
0.000445495
-0.000390738
0.000302406
-0.000449434
4.37385e-05
-0.000393141
-0.000163597
-0.000298832
-0.000218944
-0.000194249
-0.000310826
4.83414e-05
-0.000365078
0.000152703
-0.000364452
-0.000138445
-0.000101914
0.000542604
-5.83901e-05
0.000526037
-0.00012412
0.000510193
-0.000318359
0.000437343
-0.000517535
0.000169092
-0.000478614
-0.000145377
-0.000313464
-0.000319571
-0.000221981
-0.00036424
-0.00010099
-0.00049472
0.000121565
-0.000509494
0.000221571
-0.000414204
-0.000189803
3.65322e-05
0.000518773
2.34253e-05
0.000503393
-9.46494e-05
0.000488043
-0.000329105
0.000392345
-0.000488827
0.000108988
-0.000317974
-0.000107302
-0.000109451
-0.00024378
-6.27355e-05
-0.000348323
2.92169e-05
-0.000538831
0.000195806
-0.000529525
0.000264152
-0.000432335
-0.000238363
0.000120335
0.00047101
0.000115811
0.000438041
-1.4608e-05
0.000463341
-0.000211359
0.000385986
-0.000300628
0.00019941
-0.000134236
4.64697e-05
3.33491e-05
-8.07455e-05
5.53006e-05
-0.000242014
0.00012222
-0.000496052
0.000225697
-0.000513432
0.000240075
-0.000459304
-0.000295939
9.68865e-05
0.000359713
0.000172591
0.000292721
0.000118648
0.000280861
-2.56904e-05
0.000270652
-0.000111338
0.000221295
-4.04366e-05
0.000110444
4.49417e-05
4.51063e-06
7.03425e-05
-0.000148949
0.000134795
-0.00039691
0.000198422
-0.00049212
0.000209449
-0.000492195
-0.000316218
4.5943e-05
0.000136968
0.00030632
8.67779e-05
0.000460429
2.40057e-05
0.000405589
2.72672e-05
0.000336146
5.45847e-05
0.000327632
2.82903e-05
0.00030362
-9.98841e-06
0.000264463
-7.95766e-05
0.000212285
-0.000200076
0.000179704
-0.00035677
0.000196564
-0.000382913
-0.000235442
0.000558737
1.50076e-05
0.000613166
-7.82922e-06
0.000661596
-3.75491e-05
0.000698249
-6.10928e-05
0.00071094
-6.96297e-05
0.000702257
-6.67942e-05
0.00066248
-6.18598e-05
0.000611967
-5.82968e-05
0.000467009
-8.29717e-05
0.000335333
-0.000143186
0.000360016
-0.000201305
-0.000153025
0.000738616
-2.75077e-05
0.000742688
-3.76018e-05
0.000751628
-5.01553e-05
0.000765774
-6.28956e-05
0.000777188
-7.37821e-05
0.000781188
-7.65933e-05
0.00077335
-7.2391e-05
0.000744644
-6.10848e-05
0.000694533
-5.07428e-05
0.000588933
-3.84009e-05
0.00049181
-8.95645e-05
-5.6707e-05
0.000816236
-9.23097e-05
0.000827228
-0.000103418
0.000833806
-0.000103952
0.000834626
-0.00010154
0.000832451
-9.40351e-05
0.000830176
-8.83496e-05
0.000828195
-7.62254e-05
0.000821866
-6.31174e-05
0.000797677
-3.72562e-05
0.000754785
-5.04194e-06
0.000650176
5.60565e-06
7.16806e-05
-3.05561e-06
-0.000132475
0.000104858
-0.000127353
0.000198439
-0.000118162
0.000291914
-0.000115441
0.000372205
-0.000108966
0.000442895
-8.91036e-05
0.000498318
-6.50179e-05
0.00053397
-3.48338e-05
0.000544563
-2.76946e-06
0.000527149
2.79888e-05
0.000494569
4.61643e-05
6.29149e-05
0.000436445
-3.25802e-05
-0.000194283
8.51301e-05
-0.000181933
0.00012783
-0.000147506
0.000201824
-0.000148267
0.000277672
-0.000135419
0.000351175
-0.000106459
0.000411227
-7.12932e-05
0.000452143
-2.80562e-05
0.000475205
1.92336e-05
0.000472714
7.29825e-05
0.00044897
0.000104413
0.000125462
0.000408679
-4.92043e-05
-0.00020862
-3.70054e-06
-0.000195471
8.86952e-06
-0.000136812
6.55074e-05
-0.000134625
0.000108846
-0.000128146
0.000155209
-0.000102051
0.000202511
-6.3241e-05
0.000251551
-1.28539e-05
0.00028971
3.82724e-05
0.000314553
0.000104096
0.000310417
0.000162506
0.00018492
0.000287499
-5.85529e-05
-0.000203272
-3.90701e-05
-0.000194175
-2.4167e-05
-0.000136571
2.62767e-05
-0.00011966
7.40693e-05
-0.000142068
0.000115741
-0.000131983
0.000137456
-7.73806e-05
0.000155997
-1.06232e-05
0.000159993
5.45468e-05
0.000170395
0.00011713
0.000170513
0.000163804
0.00018258
0.000157462
-4.21121e-05
-0.000193893
-1.44694e-05
-0.00019915
-8.04994e-06
-0.000147818
4.06861e-05
-0.000115771
0.000112828
-0.000167627
0.000182283
-0.000170351
0.000212659
-9.41562e-05
0.000190631
2.58627e-05
0.000155656
8.54757e-05
0.000146295
0.00013024
0.000149773
0.000156624
0.000173783
0.000169089
-9.11026e-06
-0.000181763
3.08367e-05
-0.000202895
3.34042e-05
-0.000166519
7.37521e-05
-0.000134286
0.000163016
-0.000198222
0.0002304
-0.000171959
0.000254853
-6.35408e-05
0.000224466
0.00011718
0.000183034
0.000177929
0.00019753
0.00017912
0.000210969
0.000184381
0.000192547
0.000225677
6.23531e-06
-0.000159643
5.36047e-05
-0.000194796
7.03205e-05
-0.000187558
0.000104263
-0.00018565
0.000183964
-0.000239051
0.000239842
-0.000182702
0.000205201
-3.98116e-05
0.000163481
0.00013559
0.000178654
0.000230219
0.000207214
0.000230312
0.000214538
0.00021523
0.000208812
0.000215282
3.80122e-06
-0.000100457
3.86669e-05
-0.000159238
6.6752e-05
-0.000177642
0.00010457
-0.000226364
0.000175611
-0.000259366
0.000186111
-0.000206992
0.000102903
-7.50871e-05
4.50814e-05
0.000171692
7.81247e-05
0.000326022
0.000143256
0.000305112
0.00015509
0.000271725
0.00024972
0.000144005
3.08822e-06
-2.49272e-05
-3.92111e-06
-8.51583e-05
-1.60893e-05
-0.000113293
3.48675e-05
-0.00018423
6.11173e-05
-0.000257001
-9.04921e-05
-0.000256439
-0.000301564
-0.000160912
-0.000277546
0.000187922
-5.25055e-05
0.000487069
8.7002e-05
0.000449731
0.000102927
0.000369218
0.000318739
0.000130583
-2.38017e-05
0.00010902
-5.46227e-05
2.74397e-05
-7.98949e-05
-1.36385e-05
-4.06076e-05
-7.88928e-05
-4.0811e-05
-0.000186461
-0.000204108
-0.000232386
-0.00039447
-0.000193271
-0.00036927
4.18972e-05
-0.000172592
0.000504003
1.43266e-06
0.000559621
8.82298e-05
0.000498069
0.000422847
0.000185076
3.4765e-05
0.000159231
3.24443e-05
8.06169e-05
5.33078e-05
-3.34323e-06
6.10101e-05
-4.34516e-05
-2.09561e-05
-7.58258e-05
-0.000236658
-3.91048e-05
-0.00038136
-0.000104629
-0.000292742
-8.7069e-05
-0.000163996
0.000293548
-5.28541e-05
0.000576095
6.12252e-05
0.000597037
0.000561685
0.00019705
0.000727476
0.000106499
0.000682095
9.06454e-05
0.000693454
1.61188e-05
0.000698524
6.01216e-06
0.000492305
3.13835e-05
-6.26443e-05
0.000160342
-0.000401507
0.000115335
-0.000221499
-0.000102269
-4.49651e-05
-3.00481e-05
1.61626e-05
0.000336718
9.80813e-05
0.000606668
0.000171509
0.000661325
0.000353846
7.31534e-05
0.000276735
5.97277e-05
0.000217405
3.9052e-05
0.000165354
4.66806e-05
0.000130566
5.73131e-05
0.000151835
4.7489e-05
0.000163081
3.16765e-05
0.000126751
2.58507e-05
9.21294e-05
1.38983e-05
9.43822e-05
1.43122e-06
0.00011608
1.47309e-06
1.95408e-05
0.000344569
0.00012907
0.000268393
0.000112481
0.000203111
9.25357e-05
0.00015548
8.64947e-05
0.0001317
8.01222e-05
0.000153879
6.36453e-05
0.00015967
5.61799e-05
0.000127919
5.31702e-05
9.27136e-05
4.40416e-05
6.51867e-05
4.07985e-05
9.15767e-05
4.23864e-05
4.53893e-05
0.000258166
0.000174624
0.000219877
0.000156756
0.000187904
0.000141218
0.000164012
0.00012382
0.000157187
0.000112775
0.000187761
0.000102822
0.000203271
9.63775e-05
0.000183012
8.76413e-05
0.000146346
7.93184e-05
0.000115361
7.72902e-05
0.000129862
7.60616e-05
7.43542e-05
0.000150747
0.000175207
0.00015462
0.000159105
0.000161679
0.000155525
0.00016964
0.000152771
0.000188585
0.000148422
0.00020336
0.000138861
0.000216084
0.000122333
0.000226573
0.000111496
0.000218634
0.000125506
0.000183731
0.000121671
0.000153405
0.00012465
0.000114352
0.000179968
0.000176339
0.000196037
0.000166209
0.000221918
0.000164607
0.000241869
0.000164818
0.000245111
0.000165772
0.000244954
0.00014413
0.000262646
0.000127271
0.000276323
0.000127107
0.000256591
0.000161981
0.000206954
0.000180302
0.000166556
0.000205925
0.00018049
0.000239837
0.000186755
0.000256113
0.000177668
0.000271653
0.000160885
0.000282586
0.000165585
0.000282669
0.000146446
0.000294312
0.000127916
0.000319917
0.000139721
0.000320091
0.000149549
0.000267491
0.000226914
0.000211204
0.000217535
0.000221301
0.000230253
0.00021409
0.000220114
0.000208247
0.000240519
0.000193252
0.000275495
0.00018737
0.00021856
0.000195808
0.000147442
6.00212e-05
0.00017294
4.06851e-05
0.000233299
9.38247e-05
0.000288812
0.000171276
0.000281576
0.000173624
0.000253916
0.000125557
0.000258645
0.000154282
0.000200084
0.000170985
0.000243345
0.00024303
0.000216587
0.000226915
0.000253527
0.000107384
0.000247392
5.82145e-05
5.92831e-05
0.000108502
-4.39097e-05
0.000236804
-2.23367e-06
0.000326764
3.4459e-05
0.00031004
-0.00013474
0.000203542
7.62818e-06
0.000170659
0.000146898
0.000198904
0.000206947
0.000293307
0.000280828
0.000277235
0.000219005
0.000341439
9.62369e-05
0.000303422
8.85857e-05
0.000138223
0.000177138
-2.71814e-05
0.00032178
-8.20438e-05
0.000383021
-0.00024928
0.00023044
-0.000407468
3.32165e-05
-7.92622e-05
2.14401e-05
0.000179644
0.00018779
0.000284193
0.000397503
0.000301748
0.000402156
0.000203392
0.000447911
0.00011345
0.000357868
0.000132449
0.000164761
0.000221544
2.9057e-06
0.000332764
-0.000137964
0.000322961
-0.000330336
0.000176241
-0.000463461
6.96771e-05
-0.000206888
9.26145e-05
8.63758e-05
9.67727e-05
0.000329742
0.000561717
0.000329354
0.00055538
0.00022029
0.000545552
0.00016508
0.000401634
0.000204576
0.000193832
0.000280085
2.3282e-06
0.000315309
-0.000114848
0.000222419
-0.00020031
0.000109636
-0.000321453
0.000138449
-0.000186134
0.000250316
-5.9594e-05
1.48396e-06
0.000272846
0.000689888
0.000300028
0.000656438
0.000236878
0.000592984
0.00022209
0.00042803
0.000287892
0.000232956
0.000365561
5.29886e-05
0.000388326
-9.83401e-06
0.000312722
-3.26813e-05
0.000211765
-6.31115e-05
0.000217749
-2.62656e-05
0.000301292
-3.6244e-05
3.04303e-06
6.55027e-07
1.10206e-05
4.92722e-06
4.13757e-06
7.53158e-06
6.33355e-06
1.47666e-05
3.19119e-07
1.98974e-05
3.57474e-06
1.97666e-05
7.75629e-06
1.60574e-05
1.08598e-05
9.85212e-06
1.31923e-05
-5.3032e-06
2.27491e-05
-2.59072e-05
2.80241e-05
-5.09018e-05
3.76422e-05
7.59511e-05
-0.000109813
-1.98899e-06
1.19524e-05
-1.91609e-06
3.98226e-06
-3.43072e-06
7.60278e-06
-4.85039e-06
3.96494e-06
-1.02393e-05
1.30588e-05
-1.81149e-05
1.89624e-05
-3.5722e-05
2.99613e-05
-5.86247e-05
3.76401e-05
-9.27246e-05
5.82306e-05
-0.0001509
8.71915e-05
-0.000240701
0.000130111
0.000178159
-0.000322622
4.77394e-07
1.71983e-05
1.8221e-06
5.87516e-06
4.90061e-06
1.04768e-05
6.14597e-06
9.37554e-06
1.55124e-07
2.64749e-05
-1.08128e-05
3.59682e-05
-3.68332e-05
5.94424e-05
-7.6021e-05
5.11946e-05
-0.000116476
4.26347e-05
-0.000173512
7.76278e-05
-0.000250536
0.000182984
0.000251677
-0.000311567
6.10618e-06
1.11279e-05
1.18515e-05
4.2802e-06
1.34361e-05
1.31924e-05
1.92065e-05
1.10564e-05
1.9605e-05
3.57161e-05
9.50558e-06
5.12724e-05
-1.37671e-05
4.55914e-05
-7.97827e-05
4.68739e-06
-0.000113397
-2.79585e-05
-0.000135767
-1.63214e-06
-0.00020266
0.000105963
0.00021021
-0.000265461
-5.30811e-06
2.22461e-05
1.66481e-06
9.11139e-06
2.02568e-06
1.5596e-05
1.2728e-05
7.239e-06
2.14393e-05
3.59001e-05
1.16815e-05
3.86401e-05
-3.8193e-05
-2.41429e-05
-6.93348e-05
-9.6093e-05
-7.73888e-05
-0.000134766
-7.98812e-05
-0.000129179
-9.24264e-05
-6.48219e-05
5.83847e-05
-0.000124044
-6.58962e-07
2.78204e-05
1.55453e-06
2.1207e-06
9.50147e-06
1.15804e-06
1.74115e-05
1.08596e-05
4.14437e-05
1.75593e-05
2.17947e-05
-1.77608e-05
-9.43933e-06
-0.000100509
-2.41114e-05
-0.000173789
-9.90769e-06
-0.000223782
5.27535e-06
-0.000244048
6.37112e-06
-0.00021745
-0.000138089
6.03608e-06
7.05085e-06
3.14393e-05
-2.61309e-06
2.06934e-05
1.924e-05
4.18859e-05
4.74267e-05
2.6888e-05
8.09546e-05
-1.38532e-05
7.19436e-05
-7.02378e-05
4.39406e-05
-0.000139181
4.60126e-05
-0.000206699
7.95574e-05
-0.000255192
0.000116926
-0.000291122
0.000125414
-0.00029463
-0.000258077
0.00011644
-7.72625e-06
7.09706e-05
2.89153e-05
8.90224e-05
7.23659e-05
7.22765e-05
0.000133074
-3.83527e-06
0.000150446
-5.88963e-05
0.000132072
-9.63602e-05
0.000118458
-0.000148557
0.000134769
-0.000197733
0.000177093
-0.000231626
0.000231451
-0.000263556
0.000267142
-0.000277682
-0.000269102
0.000257585
5.5424e-05
0.000151182
7.87778e-05
0.000144344
0.000145695
5.19643e-05
0.00018566
-2.67366e-05
0.000199682
-6.51847e-05
0.000202809
-9.36498e-05
0.000214794
-0.000130028
0.000240833
-0.000160693
0.000274618
-0.000177722
0.000319448
-0.000195895
0.000368287
-0.000212881
-0.000214378
0.000389632
7.23081e-05
0.000210723
0.000117151
0.000145141
0.000190398
4.28757e-05
0.00024316
-7.7151e-06
0.000272823
-4.17014e-05
0.00029221
-7.09359e-05
0.000317027
-9.91365e-05
0.00034776
-0.000121196
0.000377741
-0.000128407
0.000404104
-0.000132172
0.000433006
-0.00014483
-0.000153605
0.000458771
0.000196505
0.000105835
0.000277185
4.38157e-05
0.000348365
-1.86539e-05
0.000371997
-2.22248e-05
0.000386985
-8.83469e-06
0.000401605
-2.38191e-05
0.000419905
-5.00206e-05
0.000445697
-7.42577e-05
0.000472913
-8.54525e-05
0.000494301
-8.85545e-05
0.000510246
-9.5586e-05
-0.000107407
0.000520648
0.00048871
9.46619e-06
0.000535318
-1.79206e-05
0.000579151
-4.50236e-05
0.000584502
-2.96537e-05
0.000562335
1.94399e-05
0.000548131
2.91245e-05
0.00055345
2.35734e-05
0.000567621
1.04699e-05
0.000577879
-2.41595e-06
0.000582684
-1.2445e-05
0.000585493
-2.75788e-05
0.000586097
-4.54541e-05
-0.000213652
0.000119915
-0.00030453
0.000113694
-0.000333936
6.03261e-05
-0.000316768
2.27786e-05
-0.000271852
-5.9421e-06
-0.000210405
-3.09783e-05
-0.000134784
-4.67228e-05
-6.25473e-05
-6.17842e-05
3.36693e-05
-6.41547e-05
8.86372e-05
-1.81321e-05
7.59918e-05
3.0295e-05
7.01027e-05
-0.000358637
0.00016513
-0.000375803
0.000125146
-0.00036831
6.46404e-05
-0.000342632
2.10094e-05
-0.000303605
-2.02621e-05
-0.00024956
-5.38442e-05
-0.000181809
-7.49743e-05
-0.000117827
-8.90805e-05
-2.56653e-05
-8.29402e-05
4.15903e-05
-1.39529e-05
5.17433e-05
6.74451e-05
7.08912e-05
-0.000346353
0.000224306
-0.000365858
0.000170675
-0.000360899
9.87837e-05
-0.000337754
4.18263e-05
-0.000296609
-1.26976e-05
-0.000245633
-4.89556e-05
-0.000186533
-7.09918e-05
-0.000120776
-8.59862e-05
-4.36836e-05
-6.65173e-05
6.12635e-05
3.01186e-05
0.000113429
8.82732e-05
9.13122e-05
-0.000299355
0.000275801
-0.000318669
0.000215614
-0.000317698
0.00012376
-0.000294325
3.86561e-05
-0.00024839
-2.851e-05
-0.000190402
-6.22758e-05
-0.000132773
-7.0416e-05
-6.55439e-05
-7.70878e-05
8.07411e-06
-4.39008e-05
5.52996e-05
7.84902e-05
0.000183379
0.000100563
0.000136164
-0.000211529
0.000170042
-0.000234869
0.000246923
-0.000235488
0.000130391
-0.000216254
6.65495e-06
-0.000177759
-8.27898e-05
-0.000126417
-0.000125643
-6.98686e-05
-0.000110783
-5.36597e-06
-7.95776e-05
5.67154e-05
-2.50876e-05
7.53542e-05
5.88011e-05
0.000205193
6.72349e-05
0.000154981
-1.49915e-05
-4.94535e-05
-8.39319e-05
9.34609e-05
-7.49542e-05
9.45692e-05
-5.78679e-05
-3.04332e-05
-5.40427e-05
-0.000129338
-4.67412e-05
-0.000190051
-1.58865e-05
-0.000184182
6.81229e-05
-0.000125023
0.000180448
-4.63852e-05
0.000217813
-1.58111e-05
0.000264627
-3.68207e-05
7.3425e-05
0.000121405
-0.000191688
0.000132761
-0.000126259
0.000100963
-3.5311e-05
0.000109086
-5.53944e-05
9.62664e-05
-0.000129606
5.99067e-05
-0.000198057
4.37143e-05
-0.000204241
0.000118473
-0.000136538
0.000243947
-8.55315e-05
0.000263585
-8.07057e-05
0.000240941
-0.000130118
-7.22014e-05
0.000230833
-0.000233669
0.000224382
-0.000192671
0.000229684
-0.000160413
0.000191258
-0.000109139
0.000155249
-0.00012962
0.000114536
-0.000146228
0.00013676
-9.48589e-05
0.000197916
-2.97998e-05
0.000254206
-4.32214e-05
0.000237367
-9.39899e-05
0.000173973
-0.000167117
-0.000157024
0.000366934
-0.000205811
0.000329181
-0.000177914
0.000306343
-0.000161944
0.000294065
-0.000148382
0.000186267
-7.8703e-05
0.000189526
4.39683e-05
0.000179608
7.85126e-05
0.000216975
9.77237e-05
0.000228419
4.58684e-05
0.00023433
-4.3063e-05
0.000225338
-0.000129015
-0.000151018
0.000460404
-0.000156071
0.000433841
-0.000143534
0.000400301
-0.000113789
0.000354799
-5.16653e-05
0.000298702
8.46713e-05
0.000283284
0.000181913
0.000280745
0.000165706
0.000261876
0.000122218
0.000262409
4.51725e-05
0.000285898
-5.31474e-05
0.000328374
-0.000120291
-0.000129805
0.000524288
-0.000120353
0.000507907
-0.000113782
0.000455079
-2.43993e-05
0.000375025
0.000102564
0.000326522
0.000188048
0.000332629
0.000154795
0.000334773
8.83814e-05
0.000330284
2.67453e-05
0.000337213
-5.08265e-05
0.000366451
-0.000120467
0.000403129
-0.000149989
-0.00014505
0.00058318
-6.62331e-05
0.000547108
-8.84875e-05
0.000468794
-2.72999e-05
0.000411593
3.21179e-05
0.000406367
1.80001e-05
0.000430859
-1.87237e-05
0.000455724
-6.76077e-05
0.000471044
-0.000103075
0.000481769
-0.000131518
0.000486559
-0.000133061
0.000470256
-0.000108877
-9.84448e-05
0.000549273
-1.96146e-05
-0.000548971
0.000588196
-2.48039e-05
0.000630884
-2.62577e-05
0.000667963
-2.91014e-05
0.000698668
-3.17068e-05
0.000718945
-3.29878e-05
0.000731836
-3.18959e-05
0.000742495
-3.03754e-05
0.000752456
-2.93517e-05
0.000761267
-2.94887e-05
0.000766703
-3.03818e-05
-3.19621e-05
0.000764666
0.000797968
-5.23906e-05
-0.000799351
0.000804414
-5.27423e-05
0.000809923
-5.44101e-05
0.000814126
-5.55423e-05
0.00081773
-5.54977e-05
0.00082108
-5.41338e-05
0.000824241
-5.26679e-05
0.000827309
-5.0868e-05
0.000830485
-4.92178e-05
0.000834181
-4.90344e-05
0.000838785
-5.06924e-05
-5.40473e-05
0.000845101
0.000885589
-0.000109763
-0.000884307
0.000887109
-0.0001114
0.000889458
-0.000113162
0.000892614
-0.00011521
0.000896771
-0.000116064
0.000901289
-0.000115749
0.000906055
-0.000115281
0.000911289
-0.000114169
0.000917366
-0.000113697
0.000924256
-0.000114793
0.000931917
-0.000119581
-0.000125357
0.000939578
0.000950111
-0.000939963
-0.000219228
0.000961822
-0.000219047
0.000975012
-0.000222473
0.000988994
-0.000222777
0.00100308
-0.00021931
0.00101644
-0.000215952
0.00102817
-0.000211766
0.00103749
-0.000207111
0.00104509
-0.000205618
0.00105195
-0.000204354
0.00106164
-0.000216869
0.0010789
-0.000216009
0.00075714
-2.4131e-05
0.000755779
-1.91764e-05
0.000764567
-2.03583e-05
0.000773737
-1.48307e-05
0.000779373
-1.06379e-05