/*--------------------------------*- C++ -*----------------------------------*\
| =========                 |                                                 |
| \\      /  F ield         | OpenFOAM: The Open Source CFD Toolbox           |
|  \\    /   O peration     | Version:  2212                                  |
|   \\  /    A nd           | Website:  www.openfoam.com                      |
|    \\/     M anipulation  |                                                 |
\*---------------------------------------------------------------------------*/
FoamFile
{
    version     2.0;
    format      ascii;
    arch        "LSB;label=32;scalar=64";
    class       volScalarField;
    location    "1.5";
    object      rho;
}
// * * * * * * * * * * * * * * * * * * * * * * * * * * * * * * * * * * * * * //

dimensions      [1 -3 0 0 0 0 0];

internalField   nonuniform List<scalar> 
3312
(
1.00047
1.00047
1.00044
1.00038
1.00032
1.00032
1.00032
1.00032
1.00032
1.00032
1.00046
1.00127
1.00047
1.00047
1.00046
1.0004
1.00033
1.00032
1.00032
1.00032
1.00032
1.00038
1.00086
1.00169
1.00047
1.00041
1.00037
1.00032
1.0003
1.00032
1.00032
1.00035
1.00037
1.00049
1.00135
1.00232
1.00047
1.00031
1.00029
1.00028
1.00028
1.00032
1.00041
1.00046
1.00046
1.00052
1.00133
1.0024
1.00041
1.00026
1.00026
1.00026
1.00026
1.00031
1.00048
1.00065
1.00062
1.00058
1.00109
1.00219
1.00038
1.00026
1.00026
1.00026
1.00026
1.00027
1.00047
1.00079
1.00085
1.00078
1.00098
1.00179
1.00035
1.00026
1.00026
1.00026
1.00026
1.00026
1.00041
1.00086
1.00117
1.00119
1.00118
1.00171
1.00033
1.00026
1.00026
1.00026
1.00026
1.00026
1.00038
1.00093
1.00153
1.00191
1.00203
1.00216
1.00031
1.00026
1.00026
1.00026
1.00026
1.00074
1.00786
1.02734
1.03833
1.00658
1.00209
1.00352
1.00027
1.00026
1.00043
1.00804
1.0487
1.17882
1.46235
1.9872
2.667
2.83833
2.05009
1.1101
1.00027
1.01362
1.1439
1.51584
2.3384
3.7179
5.56839
7.7706
10.4844
13.5186
14.225
9.91749
1.42926
2.65228
4.65562
8.22947
13.9325
20.9508
27.3766
31.78
35.5405
40.6142
47.3484
51.4188
1.00144
1.00187
1.00269
1.00378
1.0053
1.0071
1.00845
1.00844
1.0056
1.0032
1.00295
1.00295
1.00226
1.00325
1.00482
1.00725
1.01172
1.02075
1.03817
1.06347
1.07804
1.05693
1.01452
1.00295
1.00304
1.00406
1.00568
1.00827
1.0138
1.02728
1.06221
1.15545
1.36354
1.53634
1.32168
1.02997
1.00331
1.00448
1.00633
1.00926
1.01519
1.02834
1.06108
1.1746
1.64342
2.88587
3.74379
1.91944
1.00313
1.00423
1.00627
1.01088
1.01913
1.0269
1.03277
1.08057
1.46876
4.09072
13.5908
19.1521
1.00278
1.00377
1.00616
1.01309
1.02089
1.01937
1.00688
1.0077
1.10312
3.69591
33.4956
132.798
1.00253
1.00361
1.0065
1.01535
1.02081
1.01212
1.00254
1.00113
1.00061
2.10242
46.8128
278.077
1.00286
1.00427
1.0085
1.01513
1.01608
1.00916
1.00341
1.00139
1.00061
1.05024
37.7959
298.968
1.00421
1.0059
1.00991
1.0136
1.01237
1.00857
1.00442
1.00227
1.00074
1.043
17.0534
298.266
1.00561
1.00933
1.01185
1.01286
1.01092
1.00623
1.00331
1.0022
1.02025
1.46945
15.6688
291.12
3.0197
1.04683
1.00034
1.00034
1.00034
1.00034
1.07503
1.41107
2.52152
7.47606
53.3052
312.602
38.6409
11.4482
7.40768
11.555
16.9228
22.2871
28.9366
37.6651
51.1475
77.1794
196.183
343.755
1.00073
1.00073
1.00073
1.00071
1.00071
1.0007
1.00068
1.00061
1.00057
1.00057
1.0006
1.00096
1.00069
1.00055
1.00048
1.00048
1.00054
1.00058
1.0006
1.0006
1.00063
1.00069
1.00079
1.00115
1.00043
1.00032
1.00029
1.00028
1.0003
1.00036
1.00043
1.00054
1.00073
1.00089
1.001
1.00119
1.00036
1.00028
1.00028
1.00028
1.00028
1.00028
1.0003
1.00048
1.00091
1.00116
1.00121
1.00121
1.00033
1.00028
1.00028
1.00028
1.00028
1.00028
1.00028
1.00042
1.00098
1.00154
1.00159
1.00142
1.00032
1.00028
1.00028
1.00028
1.00028
1.00028
1.00028
1.00033
1.00085
1.00164
1.00227
1.00224
1.00032
1.00028
1.00028
1.00028
1.00028
1.00028
1.00028
1.00032
1.0006
1.00138
1.00224
1.00273
1.00031
1.00028
1.00028
1.00028
1.00028
1.00029
1.00029
1.00033
1.00057
1.00126
1.0022
1.00295
1.0003
1.0003
1.00061
1.00085
1.00085
1.00078
1.00061
1.00047
1.00059
1.00085
1.00084
1.00084
1.00028
1.00028
1.00043
1.00062
1.00046
1.00046
1.00046
1.00275
1.00874
1.04399
1.17721
1.74974
1.12077
1.00374
1.00322
1.01663
1.08545
1.20158
1.42252
1.73788
2.26461
3.92352
8.27486
24.1472
20.5229
24.4875
22.451
15.2821
9.42375
10.4736
13.234
16.6944
21.6379
39.1453
86.7539
140.5
1.00176
1.0048
1.01296
1.03252
1.07414
1.15032
1.27254
1.43255
1.56023
1.58034
1.31482
1.2387
1.00218
1.00594
1.01846
1.05604
1.14764
1.30029
1.47184
1.59953
1.7309
1.94972
2.50025
2.72069
1.002
1.00783
1.04534
1.19548
1.49395
1.64448
1.65631
1.5514
1.47668
1.45582
2.43279
10.7687
1.00187
1.02215
1.17726
1.60284
1.9428
1.92754
1.45293
1.2719
1.17404
1.11357
1.12208
18.1451
1.0015
1.01545
1.21029
1.86126
1.97426
1.69394
1.11508
1.06186
1.03844
1.03234
1.32992
18.8234
1.00165
1.00763
1.27343
1.94841
1.94101
1.22961
1.02331
1.01276
1.01034
1.02856
1.68474
18.5141
1.0023
1.00799
1.26782
1.82863
1.62237
1.16219
1.02456
1.00949
1.00816
1.04487
2.40158
19.369
1.00328
1.00407
1.14555
1.51943
1.40938
1.15806
1.0332
1.01046
1.00812
1.07796
3.27724
18.5141
1.00083
1.00084
1.12013
1.31271
1.46424
1.27977
1.10626
1.02301
1.00816
1.11897
3.68435
15.6141
4.21011
9.19555
14.5688
17.9552
19.293
16.5188
10.7155
4.6878
1.61749
1.14283
2.7236
9.66163
54.3114
85.0268
103.209
108.596
109.972
104.259
88.1913
59.3953
23.4477
3.74753
2.66011
10.9691
175.857
193.791
205.186
215.646
219.556
215.079
197.218
163.015
109.999
50.9048
11.1
16.9475
1.02466
1.02509
1.02515
1.02556
1.02307
1.0193
1.01505
1.01099
1.00793
1.00628
1.00541
1.00478
1.02468
1.02178
1.01943
1.01376
1.00819
1.00522
1.00392
1.00345
1.00349
1.00365
1.0037
1.0037
1.02425
1.02142
1.02132
1.01016
1.00362
1.00297
1.00296
1.00294
1.00292
1.00291
1.00292
1.00291
1.02278
1.02186
1.02843
1.00905
1.00326
1.00298
1.003
1.00298
1.00297
1.00298
1.00307
1.00312
1.01906
1.02196
1.03442
1.01544
1.00578
1.00329
1.0034
1.00385
1.00481
1.00697
1.01149
1.01149
1.01659
1.01835
1.03463
1.02529
1.01221
1.00897
1.01144
1.02771
1.05636
1.09828
1.16101
1.15737
1.01609
1.01598
1.03021
1.0301
1.02315
1.07709
1.22017
1.7504
1.78063
1.62684
1.67072
1.73287
1.01579
1.01609
1.02147
1.02795
1.05384
1.56534
3.00469
4.46547
3.23596
2.24084
2.00264
1.84947
1.01597
1.01557
1.01638
1.02125
1.12587
2.68381
6.36254
6.2883
2.97201
2.03262
1.81232
1.70414
1.01557
1.01597
1.01548
1.01896
1.13435
2.25575
5.1381
6.43991
3.71271
2.08337
1.71446
1.70789
1.01585
1.01551
1.0188
1.03679
1.08379
1.39686
2.71782
4.42661
4.4335
2.8727
1.80676
1.71248
1.424
1.44507
1.69308
1.99014
2.01024
1.70541
1.65048
2.15476
3.68129
3.67097
2.97393
1.88764
1.004
1.00324
1.00319
1.0037
1.00413
1.00445
1.07542
3.15337
27.3656
29.4729
29.4468
29.4729
1.00358
1.00319
1.00316
1.00486
1.00646
1.00815
1.10576
2.94142
10.659
8.78555
3.64931
20.9633
1.0029
1.00287
1.00323
1.00616
1.00718
1.00957
1.06876
1.94712
4.48729
4.63288
3.39787
12.795
1.00286
1.00286
1.00344
1.00582
1.00885
1.02447
1.12916
1.54376
2.55618
4.14721
3.41748
5.99071
1.01169
1.01195
1.01376
1.01954
1.03726
1.10317
1.26012
1.62359
2.73367
4.12924
3.23831
4.10715
1.1628
1.20011
1.19983
1.15304
1.29392
1.77239
1.81799
1.84702
2.62124
4.04227
3.20849
9.64823
1.67676
1.50275
1.56616
2.818
6.04215
6.53536
5.26568
3.35703
4.90111
11.4036
16.4421
117.311
1.69234
1.68883
2.76131
6.40514
8.09718
7.9781
6.98785
7.1205
12.3682
40.5557
105.609
146.06
1.6976
1.79874
3.29483
5.68705
5.0933
4.19222
4.19915
5.00656
8.485
60.5626
141.797
145.921
1.70304
1.73752
3.06586
4.62894
3.9084
2.67087
2.11545
2.10427
3.45245
41.3239
145.956
146.177
1.70521
1.78478
3.20146
4.69224
3.8391
2.297
1.59328
1.50558
1.83215
13.2452
95.3378
146.015
1.78653
2.48757
5.22559
5.58256
3.44513
1.6537
1.47659
1.47796
1.47849
2.00038
15.4072
114.129
1.00043
1.00041
1.00041
1.00041
1.00041
1.00041
1.00041
1.00041
1.00041
1.00041
1.00041
1.00041
1.00047
1.00042
1.00041
1.00042
1.00044
1.00051
1.0005
1.00044
1.00041
1.00041
1.00044
1.0006
1.00047
1.00042
1.00047
1.00064
1.00078
1.00094
1.00093
1.00075
1.00049
1.00041
1.00049
1.00083
1.00047
1.00044
1.00073
1.00105
1.0012
1.00128
1.00155
1.0179
1.05401
1.03268
1.00377
1.00095
1.00046
1.00062
1.0013
1.0015
1.00155
1.00169
1.02607
1.3808
1.85398
1.87243
1.42233
1.05106
1.00046
1.00092
1.00163
1.00167
1.00169
1.02453
1.37626
2.41729
3.40776
3.89144
3.61093
2.23177
1.00046
1.00084
1.00152
1.00801
1.09811
1.74153
3.19034
4.47781
4.9792
5.18814
5.48488
5.05391
1.00046
1.00158
1.02403
1.27841
2.59025
5.27562
7.92632
8.63178
7.90856
6.45062
5.96825
6.40798
1.00095
1.01497
1.18471
2.13936
5.00863
10.1356
14.686
15.827
14.6277
11.0541
7.23723
6.87375
1.00747
1.04336
1.26589
2.2526
5.41353
12.0818
20.5277
25.9121
26.1056
22.6191
14.6807
9.04885
1.042
1.15951
1.571
2.70856
5.44241
11.7757
23.5753
36.053
41.8604
41.4784
33.1107
18.4814
1.67594
2.72741
4.62962
7.54475
12.0121
19.7085
30.5616
45.6437
62.5995
69.3321
63.998
42.162
1.00059
1.00078
1.00088
1.0011
1.00145
1.00174
1.00199
1.00217
1.00179
1.00153
1.00153
1.00154
1.00092
1.00134
1.00181
1.00238
1.0029
1.00326
1.00359
1.00392
1.00389
1.00337
1.00317
1.00154
1.00138
1.00229
1.00351
1.00476
1.00571
1.00624
1.00648
1.0066
1.00768
1.00858
1.02528
1.22383
1.00221
1.00397
1.00587
1.00746
1.0089
1.01057
1.0116
1.01142
1.01339
1.02081
1.06839
4.39519
1.0026
1.00384
1.00572
1.0074
1.00952
1.01272
1.01585
1.01873
1.02139
1.05381
1.19696
29.0912
1.14233
1.00386
1.00351
1.00359
1.00503
1.00812
1.01596
1.02454
1.04307
1.32573
5.02479
53.7951
2.86946
1.15473
1.00265
1.00191
1.00192
1.00249
1.00786
1.02652
1.21543
4.80938
32.6608
53.6823
5.90178
3.02102
1.15726
1.00283
1.00148
1.00116
1.00319
1.03549
2.0509
16.6594
54.073
55.287
7.53317
6.4027
2.72971
1.09014
1.00102
1.00087
1.02357
1.23717
3.56724
20.4023
55.8486
54.4097
9.2164
9.09422
5.64668
1.69819
1.02387
1.07101
1.63101
4.06977
8.99515
18.4732
48.5767
55.3651
13.5848
13.3356
9.61823
3.48191
2.559
4.41021
9.43552
19.6423
24.4242
22.0182
26.4523
53.98
20.8649
18.5435
18.4286
16.347
17.2249
25.0338
27.1496
27.2231
26.7671
20.297
16.3592
39.9948
24.4965
31.6562
43.0192
60.6023
82.8625
105.519
121.825
126.501
127.782
130.686
138.426
151.584
120.793
157.891
197.848
240.682
279.31
307.775
323.477
325.998
324.084
325.428
329.105
335.681
301.361
327.196
353.734
354.02
353.939
354.022
353.941
354.023
353.94
354.02
353.937
354.017
338.504
330.754
322.864
320.309
318.032
314.709
309.286
300.268
285.901
266.242
240.059
205.448
169.832
197.056
227.513
251.546
268.057
278.725
290.914
311.907
340.831
345.069
344.633
344.145
345.871
346.039
346.061
346.041
346.063
346.042
346.011
345.942
345.787
345.492
337.206
328.814
350.869
345.074
333.522
318.059
297.606
272.057
241.224
201.981
157.592
118.833
96.572
110.637
163.141
120.781
84.8223
57.6985
38.8125
27.5831
22.1699
17.6921
14.1253
11.1625
8.94974
10.9335
283.011
217.26
178.355
151.771
131.378
134.86
146.701
163.876
193.694
226.558
227.866
226.006
316.743
300.84
288.985
287.996
286.963
285.876
284.843
282.22
273.185
251.976
212.067
158.794
142.233
165.384
164.401
169.479
167.285
157.591
141.77
121.407
100.243
80.9164
65.8008
54.329
18.7994
31.4957
41.902
41.4659
37.5636
32.1829
29.2367
29.3045
31.7556
31.568
31.6621
33.7794
212.086
202.305
205.448
226.229
243.711
244.165
243.602
221.861
172.078
114.46
62.5481
34.1242
111.659
90.5618
90.6655
108.824
151.142
191.466
202.297
200.169
186.29
151.111
113.209
79.0011
45.3698
42.8585
45.2812
55.2881
74.4213
100.26
127.663
150.475
158.482
158.158
153.661
137.373
37.322
42.255
48.4705
56.2958
66.4982
80.23
96.3947
114.47
134.379
152.843
156.252
155.974
18.7808
10.8537
7.52623
7.60351
8.21803
7.13988
3.47814
1.40405
1.41698
3.72689
4.33822
3.94001
53.5185
35.7366
24.3037
21.7815
23.0598
24.7745
12.9091
1.69621
1.18993
1.19593
3.79627
6.50623
110.997
84.0437
62.5981
49.7181
44.1665
43.2474
30.6255
8.26559
1.45287
1.18993
1.62873
4.23816
149.686
130.859
104.103
78.3182
58.3084
46.7256
37.9475
21.1348
5.84292
3.10897
6.71192
21.7601
4.10468
5.51836
7.02012
5.79724
2.78885
1.51829
1.47796
1.63512
2.15731
3.47003
6.46307
11.724
7.81755
8.30938
7.67761
5.34113
3.31451
3.5894
4.89854
7.37695
11.4461
17.2352
26.1837
39.1655
7.87352
12.3018
20.0839
31.1505
44.0689
57.1406
70.793
84.656
99.2442
115.408
136.246
162.99
70.8421
133.39
195.863
231.345
244.975
249.071
249.5
249.7
248.73
248.909
251.896
261.643
14.1357
17.9951
22.8135
29.3432
41.1767
66.6056
108.602
143.656
157.951
156.521
134.984
92.1853
56.2834
74.599
92.3832
111.986
140.907
184.042
245.656
309.078
328.508
324.47
299.686
248.337
193.416
221.964
244.739
262.348
276.683
290.611
305.784
323.648
336.783
352.021
361.932
362.405
276.451
278.727
278.634
275.792
271.083
261.992
261.276
261.513
267.331
281.589
304.21
336.841
42.3137
19.4432
23.8779
27.0713
27.2867
27.1023
27.1804
26.5293
24.1393
19.4916
16.4787
19.4172
176.648
100.045
41.3439
24.7912
24.3149
24.38
24.1211
24.6307
30.3681
41.9887
61.0859
88.1581
353.856
317.596
262.776
195.283
129.157
118.28
126.788
142.474
166.238
201.59
238.171
272.371
355.028
355.529
355.366
352.497
334.716
316.904
319.837
328.538
350.681
353.463
353.223
345.984
130.182
128.438
123.437
120.411
117.025
111.013
97.9286
76.1663
46.9069
22.2314
9.54761
6.99506
91.8988
91.8655
90.2523
89.3411
88.3742
83.3073
69.1252
46.3103
23.1302
9.00677
5.53626
6.46099
95.2613
94.453
92.4159
91.3226
89.4203
80.7446
61.3387
35.8018
14.907
5.47143
4.89862
10.4192
96.3845
95.0893
92.9405
91.8481
88.2759
75.1998
50.5992
24.4105
8.31474
3.72731
3.95379
15.3923
5.45632
5.15685
5.15605
6.05735
8.9745
11.6108
10.7567
7.28499
4.59891
4.6114
4.58057
5.23307
7.98667
10.2609
13.3411
17.3088
27.4755
44.3573
39.4342
19.4447
7.93796
5.59044
5.04527
8.0526
24.7295
33.4034
37.4757
42.3944
62.1493
89.8679
72.4784
29.5258
7.29968
5.73652
6.25962
20.3765
79.9013
88.1734
69.3628
65.7581
89.8482
103.304
85.5184
37.1259
7.6635
4.66788
7.0299
46.712
11.42
25.9873
46.9108
68.9255
84.465
90.4992
89.9056
66.8902
39.7774
30.9523
31.6663
48.4624
22.3571
59.3586
126.96
194.989
206.119
195.585
140.058
74.6627
39.8831
30.8501
40.7783
87.8999
66.2778
156.567
241.748
263.488
272.657
244.333
139.673
58.1042
31.271
30.7489
61.4718
124.473
157.221
277.406
315.237
309.085
301.086
203.883
82.2432
32.8052
23.1005
30.4081
87.4418
131.99
71.4173
90.2269
105.673
126.113
143.472
153.663
165.279
165.682
153.834
138.272
133.737
131.836
128.417
126.269
118.422
112.475
103.34
109.256
145.655
156.277
125.244
87.6484
85.8635
83.2369
162.588
116.884
58.3209
33.7685
34.3664
59.804
121.476
133.194
72.5704
31.6445
35.8406
39.166
178.036
72.652
28.1467
21.613
21.7471
47.9483
124.072
137.163
53.432
14.7462
15.8831
31.4005
121.149
97.4892
74.6152
56.1515
38.9623
26.6377
24.3357
23.975
31.7796
47.8633
90.8045
244.192
71.2633
54.0782
46.7652
46.655
44.5436
63.6177
104.2
150.595
189.39
187.826
337.753
499.393
39.2307
46.4152
53.7514
72.3509
105.719
142.764
176.184
208.154
219.745
234.225
435.248
499.393
47.5447
65.0989
79.0532
87.1631
102.229
105.711
128.67
175.634
209.944
323.459
493.098
499.393
486.814
498.554
489.344
388.237
311.557
286.183
256.973
205.622
145.95
105.08
77.7294
58.0065
499.393
498.548
469.545
251.253
121.853
97.0979
86.9069
71.9043
50.4348
31.4811
25.0499
25.0818
499.393
498.029
460.22
197.041
35.9531
30.8893
34.0608
35.7552
34.4097
29.5012
26.3587
30.157
499.393
497.831
457.891
193.324
24.6053
28.7852
39.7609
50.1607
51.9301
43.8576
44.1733
46.5614
43.8881
43.2025
62.4306
110.276
185.481
251.219
281.295
286.114
294.403
307.61
321.245
327.979
25.0499
30.5121
42.394
65.244
126.247
224.421
282.316
286.842
285.412
285.383
266.126
224.042
35.3263
44.1139
44.1019
40.1915
53.8762
131.321
210.605
234.562
206.12
190.056
166.369
153.531
46.1089
45.568
42.2179
40.162
41.2796
82.391
138.257
160.865
153.852
148.253
148.363
158.673
313.419
300.098
292.285
338.302
337.298
315.972
248.968
262.681
267.062
215.153
157.412
134.857
174.613
168.515
253.97
304.027
175.432
96.8338
93.7499
116.68
134.405
126.316
98.4407
91.9323
153.443
153.834
195.044
207.69
98.95
60.8021
71.7542
103.024
127.675
131.142
103.512
95.3219
183.36
186.562
166.413
133.168
72.2112
50.3985
62.739
99.7045
130.048
131.11
104.44
96.5785
97.2482
95.3753
93.2825
91.9019
85.292
66.1193
37.8062
14.6856
4.37883
2.80261
2.9966
4.05311
97.7881
95.7627
93.9123
91.2676
80.6212
55.2661
25.7351
8.00534
2.49034
2.08252
1.80791
1.51567
98.2508
96.3473
94.2555
89.7803
72.8139
41.7455
15.1915
3.96568
1.71969
1.77232
1.7838
1.51277
98.4776
96.7608
94.1484
86.5488
62.2672
28.248
7.83813
2.13581
1.50937
1.68655
1.68687
1.45432
98.6916
97.374
94.1324
81.5499
48.5542
15.7808
3.52035
1.46961
1.4177
1.70169
1.69981
1.43335
98.9784
97.9242
93.6104
74.3468
33.7473
7.19668
1.95655
1.3399
1.33407
1.60647
1.69415
1.39529
99.3529
98.4061
92.5339
64.2009
19.4257
2.89066
1.56049
1.33152
1.24299
1.44154
1.62272
1.31007
99.8337
98.9446
91.855
51.1073
9.05133
1.70021
1.47376
1.35434
1.16729
1.25707
1.41096
1.18956
100.165
99.4263
91.4056
36.0375
4.31368
1.51558
1.45329
1.2438
1.12228
1.12018
1.15819
1.08635
100.368
99.9948
92.2569
23.7999
2.92856
1.48478
1.48568
1.22115
1.09206
1.05257
1.04057
1.03344
100.452
100.341
93.4976
15.7152
2.51898
1.42053
1.41896
1.19593
1.06036
1.02952
1.02937
1.02935
100.554
100.462
97.6514
9.99434
2.93287
2.93124
2.82984
1.70168
1.17659
1.09754
1.08466
1.0721
113.784
101.923
66.8802
64.2366
80.7512
103.375
85.9785
38.3637
8.48284
4.6114
6.96974
71.1664
113.99
45.9876
25.5623
27.7192
37.913
70.5239
76.143
38.0341
8.853
4.5697
6.19454
75.9065
150.256
24.3376
11.7809
11.7436
13.1129
31.8441
64.3409
48.3287
12.3283
5.68709
8.52487
64.9193
185.524
23.8068
19.129
21.1523
19.0722
29.7259
45.2906
46.6595
26.8181
15.2746
19.6032
44.1225
185.388
22.1485
25.5882
30.6264
30.0096
31.8734
31.9594
31.1447
32.8385
32.6161
31.5701
20.6554
177.854
22.2231
29.8564
30.6362
30.3352
31.7861
20.423
13.8685
22.5245
27.2564
21.3871
7.93032
174.515
34.4991
30.6771
30.6567
30.6362
26.1373
10.1526
4.48343
6.93701
10.638
7.1617
3.73216
228.707
50.5482
30.167
30.6362
21.6151
10.4502
3.68049
3.06794
3.03627
3.20139
3.04012
3.07305
310.804
76.3704
28.9326
19.5335
10.7746
3.7007
3.06794
3.02782
3.05941
3.02961
3.0664
3.03811
369.559
143.201
36.4163
15.3878
8.39667
3.9753
3.05456
3.05941
3.03397
3.05887
3.03794
3.06266
369.562
256.411
74.329
25.985
18.4532
7.28173
3.06794
3.04519
3.05941
3.49451
3.06266
3.04631
369.566
369.569
369.572
197.349
135.164
148.581
148.54
122.202
94.5321
85.0649
102.864
137.312
263.043
328.583
328.681
312.158
234.96
94.1922
32.8204
20.9837
20.2925
35.1437
99.118
122.547
297.041
328.681
326.408
279.938
138.744
50.0165
23.3288
19.7787
19.9743
38.9776
96.6875
119.601
252.85
296.768
249.121
146.412
70.7748
43.6405
28.7247
19.8105
20.1079
38.7491
96.3941
119.481
103.953
111.677
80.8525
57.0233
54.6437
51.1141
37.6809
22.9519
20.4283
38.4337
99.4745
119.446
19.075
22.8716
33.8786
52.2585
66.0882
65.7374
48.1638
25.5083
20.4762
39.778
107.354
115.802
7.68935
16.1209
35.8459
62.4944
82.1812
82.4008
60.3866
29.5518
21.6599
47.5807
107.549
98.3128
5.52806
14.5481
35.2967
64.895
89.2741
91.8438
69.0313
34.009
27.1622
58.3189
107.001
79.3487
4.36605
11.1596
30.3195
62.2088
89.6813
91.8893
69.0161
36.9552
33.5584
62.9234
84.4307
69.2254
3.84356
9.11803
26.3519
57.8703
86.5221
87.8849
65.8763
38.503
35.4733
57.5753
69.1847
69.205
3.78508
8.3925
22.9046
47.783
67.5889
68.6992
56.733
38.7283
36.1543
61.7932
72.0065
70.8586
5.70766
23.358
81.6452
151.853
185.35
189.546
175.182
144.802
148.733
199.785
159.104
148.585
200.485
262.958
267.76
267.746
267.822
267.808
267.877
267.814
267.845
267.752
267.784
244.703
183.341
45.3653
30.3963
21.8451
20.7786
40.1961
119.059
163.457
58.9847
14.7391
16.6948
41.7724
182.938
30.5726
21.9625
22.1923
16.7369
24.6794
96.1685
168.054
106.67
17.9795
22.6577
63.0821
183.083
23.5726
10.9849
16.905
14.0118
11.9623
51.53
168.357
168.074
43.5631
28.6394
61.0887
182.938
23.4384
8.56115
9.14024
11.3577
8.47922
14.434
104.119
168.801
134.995
51.3293
54.7962
182.942
24.543
8.5379
7.2371
7.79037
7.24284
7.26975
33.1986
155.858
163.015
121.566
64.2062
172.887
23.6201
9.16492
7.24867
7.2069
7.24867
9.27382
17.7123
79.5434
163.442
156.21
94.9685
165.75
21.6361
9.81065
7.19046
7.24867
10.8917
31.4905
35.7632
41.3282
118.838
146.225
110.348
164.526
20.9286
9.52807
7.26477
10.0852
33.1451
49.3611
49.1716
42.6758
47.3701
94.6789
103.563
178.015
24.4088
10.0407
7.41405
15.5292
37.3169
49.1716
49.3502
32.3433
24.6384
36.0609
83.1435
207.405
36.2588
13.962
8.50254
11.1585
22.484
35.9512
34.9326
18.701
18.7468
18.701
59.3784
233.498
66.0727
28.6081
18.2964
16.5497
23.5461
25.8943
23.4791
18.785
18.701
18.785
43.483
233.555
120.433
74.4114
63.4516
59.4389
59.0378
44.4333
24.1292
18.7575
18.785
18.7575
32.8612
73.909
74.4104
70.1055
56.3934
58.9109
59.1839
86.5944
144.924
213.177
391.231
498.665
499.257
74.4104
74.4155
44.8412
44.356
44.9649
61.4619
92.4599
143.594
247.207
458.671
496.535
483.286
68.621
52.0452
44.3714
44.7114
46.8386
81.5093
116.549
165.225
323.038
483.819
490.677
471.117
48.083
44.4195
44.7288
44.3908
49.4279
88.0625
135.822
217.481
402.455
483.678
485.63
475.414
44.5963
44.7475
44.4064
44.7288
59.9663
103.726
167.669
298.454
450.957
480.01
477.534
490.217
51.0487
44.478
44.7475
62.9808
111.67
186.661
260.059
387.171
460.352
468.494
417.074
490.214
64.1123
44.7667
59.2125
182.205
263.611
301.905
321.42
393.412
437.533
434.516
415.042
490.053
76.4161
50.5619
126.824
420.062
421.848
396.346
375.449
384.916
388.483
388.405
414.894
492.829
77.3225
65.8832
282.447
484.624
477.796
471.757
458.176
431.508
412.791
392.373
464.219
497.628
76.185
88.4392
453.967
493.556
492.846
495.646
494.379
485.845
473.571
474.951
492.533
498.44
69.9868
138.228
495.715
497.179
497.886
498.48
498.48
498.305
496.593
497.371
498.191
498.481
70.6466
272.984
498.366
498.38
498.48
498.48
498.48
498.48
498.48
498.48
498.481
498.48
499.393
498.017
457.853
186.164
24.5451
31.2654
42.0485
52.699
55.0694
55.0992
55.0694
50.3468
499.393
497.849
454.678
172.961
24.1178
22.2479
23.8609
28.8531
42.1544
53.102
47.7188
36.8804
499.393
497.686
452.964
171.589
20.5624
18.5217
18.5791
20.2875
26.922
29.0307
25.2939
36.9153
499.393
498
455.799
179.958
21.5801
18.5676
18.4105
18.5776
18.4901
18.5882
21.9168
47.3809
499.393
498.928
457.561
188.33
23.3043
18.4031
18.5522
18.3819
18.5514
18.4609
25.0332
44.1082
499.335
499.37
460.786
200.856
25.2441
18.5357
18.3742
18.5435
18.3588
18.5514
20.5336
31.7512
499.335
499.592
472.144
237.434
30.1836
18.3756
18.5197
18.3485
18.5232
18.3568
18.5514
28.2445
499.387
499.774
488.295
326.534
54.1522
18.5385
18.3523
18.5435
18.3427
18.8839
24.9046
31.6064
499.526
499.808
497.695
437.786
184.873
41.274
20.8708
24.3141
97.0318
193.956
150.763
84.7493
499.658
499.808
499.749
493.663
432.809
304.138
254.778
335.249
473.094
498.843
473.432
392.981
499.781
499.808
499.808
499.754
499.619
499.385
499.081
499.188
499.808
499.808
499.769
499.426
499.808
499.808
499.808
499.808
499.808
499.808
499.808
499.808
499.808
499.808
499.806
499.76
52.916
52.7634
46.0766
42.8967
44.045
79.586
128.934
147.655
147.814
147.976
158.783
179.149
61.2369
85.3151
68.8949
53.7005
50.696
82.7207
132.67
148.141
147.976
154.45
190.203
229.479
68.1988
93.55
94.8762
75.5785
63.5801
81.0965
125.778
145.122
151.342
176.455
224.484
229.201
74.8814
86.077
95.748
97.5981
82.3115
75.3738
103.903
137.132
165.938
214.706
268.746
130.968
61.8109
80.0005
99.831
99.7258
81.1128
74.942
82.8515
145.24
207.515
265.97
268.735
130.968
42.7917
63.6007
93.0249
98.9343
79.482
74.9458
102.783
196.05
271.757
272.041
135.822
130.968
44.8865
65.3461
88.5905
100.102
98.6777
121.492
198.144
273.602
273.9
246.532
135.616
152.733
59.2835
103.879
132.121
143.72
180.85
235.431
277.831
278.086
244.786
145.465
144.166
180.173
76.3249
125.869
181.332
222.427
262.128
280.821
280.846
268.872
207.195
112.68
119.602
210.779
305.306
245.16
206.407
236.016
258.241
260.155
238.554
188.69
112.064
92.3966
102.207
250.25
498.004
483.504
442.998
400.016
354.405
300.175
224.219
130.725
92.3966
92.3978
145.332
310.744
499.732
499.73
499.633
497.503
481.495
444.228
396.484
346.98
320.965
331.306
331.325
331.326
148.856
186.632
177.911
122.147
67.5738
43.0883
45.749
83.495
128.662
129.018
104.785
97.6678
52.8604
125.682
172.039
117.856
57.7299
33.3202
39.2789
71.8208
121.703
128.181
104.737
98.3095
29.7068
45.2652
99.7351
75.9498
41.4851
29.7446
37.0483
64.6858
117.286
127.601
103.786
98.7289
29.7246
29.6895
31.574
33.5094
29.7331
29.6961
36.0691
63.5589
116.56
126.992
102.998
99.013
29.6942
29.7391
29.6795
29.7277
29.6848
29.7331
33.4602
61.0017
119.993
126.357
102.327
99.2852
29.7411
31.8375
36.1019
32.7739
29.7325
29.7175
33.173
61.3766
120.514
126.073
101.64
99.5339
32.9754
53.0765
60.2217
48.0169
29.82
29.7445
33.7584
67.2912
120.741
125.696
100.829
99.7678
44.6022
79.0811
82.2098
59.5529
31.2628
29.7301
38.2009
78.9535
140.262
120.948
100.186
99.9977
66.1328
77.8049
90.3676
70.5638
36.5823
31.1424
45.2135
90.9084
209.76
114.568
100.17
100.167
69.686
72.3906
91.0478
88.7089
55.7008
54.4937
83.0009
158.799
305.517
109.231
100.177
100.279
70.5099
105.355
172.106
230.569
207.988
215.093
263.028
343.837
369.868
105.195
100.43
100.425
324.203
382.242
412.96
412.963
412.96
412.963
412.96
412.963
388.283
101.885
100.544
100.571
100.591
100.693
100.711
100.761
100.753
100.795
100.784
100.802
100.796
100.794
100.801
100.801
100.799
100.8
100.8
100.8
100.8
100.8
100.8
100.8
100.571
100.595
100.697
100.761
100.769
100.796
100.784
100.807
100.796
100.805
100.801
100.801
100.8
100.8
100.8
100.8
100.8
100.8
100.8
100.8
100.589
100.711
100.712
100.772
100.797
100.797
100.807
100.807
100.814
100.814
100.814
100.814
100.814
100.814
100.811
100.809
100.807
100.805
100.804
100.802
100.62
100.711
100.71
100.759
100.784
100.806
100.806
100.816
100.816
100.817
100.817
100.814
100.813
100.813
100.811
100.81
100.807
100.805
100.803
100.802
100.62
100.662
100.728
100.744
100.773
100.773
100.789
100.794
100.794
100.799
100.799
100.799
100.799
100.8
100.8
100.8
100.8
100.8
100.8
100.8
100.649
100.691
100.721
100.753
100.753
100.786
100.784
100.795
100.794
100.794
100.799
100.8
100.799
100.8
100.8
100.8
100.8
100.8
100.8
100.8
20.1826
21.1111
18.5215
18.4202
18.2947
18.4202
18.4813
18.4202
17.9627
18.4202
18.1342
18.4202
19.3639
26.3333
43.1772
71.9854
102.221
107.389
107.354
101.798
21.8321
29.69
32.5615
35.1699
47.3207
72.9977
101.046
107.368
89.9763
46.3278
21.4644
18.3272
18.4202
19.349
24.9446
39.8216
67.1297
95.0255
95.8409
76.9438
26.9592
29.1928
45.157
99.8624
183.044
250.181
288.567
288.691
288.461
261.595
162.483
72.7157
45.0959
44.6926
49.3079
63.0743
76.9245
82.3887
75.2086
53.4623
79.7734
128.704
220.916
346.923
361.901
361.895
339.134
289.45
271.517
271.89
263.92
245.148
242.969
243.227
228.348
168.098
112.408
88.7406
68.8522
52.2
420.595
478.23
460.356
426.354
330.945
203.017
140.117
118.559
139.292
221.962
250.735
248.649
230.393
202.366
172.209
138.849
110.953
92.5638
88.5548
105.216
498.178
490.152
253.948
118.431
118.432
118.391
118.513
118.267
118.557
129.427
143.216
142.331
137.856
135.167
129.267
124.996
122.896
132.695
146.903
157.314
)
;

boundaryField
{
    rotor
    {
        type            calculated;
        value           nonuniform List<scalar> 
192
(
1.00047
1.00047
1.00044
1.00038
1.00032
1.00032
1.00032
1.00032
1.00032
1.00032
1.00046
1.00127
1.00144
1.00187
1.00269
1.00378
1.0053
1.0071
1.00845
1.00844
1.0056
1.0032
1.00295
1.00295
1.00073
1.00073
1.00073
1.00071
1.00071
1.0007
1.00068
1.00061
1.00057
1.00057
1.0006
1.00096
1.00176
1.0048
1.01296
1.03252
1.07414
1.15032
1.27254
1.43255
1.56023
1.58034
1.31482
1.2387
1.02466
1.02509
1.02515
1.02556
1.02307
1.0193
1.01505
1.01099
1.00793
1.00628
1.00541
1.00478
1.004
1.00324
1.00319
1.0037
1.00413
1.00445
1.07542
3.15337
27.3656
29.4729
29.4468
29.4729
1.00043
1.00041
1.00041
1.00041
1.00041
1.00041
1.00041
1.00041
1.00041
1.00041
1.00041
1.00041
1.00059
1.00078
1.00088
1.0011
1.00145
1.00174
1.00199
1.00217
1.00179
1.00153
1.00153
1.00154
1.00047
1.00047
1.00047
1.00047
1.00041
1.00038
1.00035
1.00033
1.00031
1.00027
1.00027
1.42926
1.00154
1.00154
1.22383
4.39519
29.0912
53.7951
53.6823
55.287
54.4097
55.3651
53.98
39.9948
1.00073
1.00069
1.00043
1.00036
1.00033
1.00032
1.00032
1.00031
1.0003
1.00028
1.12077
20.5229
1.00295
1.00295
1.02997
1.91944
19.1521
132.798
278.077
298.968
298.266
291.12
312.602
343.755
1.02466
1.02468
1.02425
1.02278
1.01906
1.01659
1.01609
1.01579
1.01597
1.01557
1.01585
1.424
1.2387
2.72069
10.7687
18.1451
18.8234
18.5141
19.369
18.5141
15.6141
9.66163
10.9691
16.9475
1.00043
1.00047
1.00047
1.00047
1.00046
1.00046
1.00046
1.00046
1.00095
1.00747
1.042
1.67594
29.4729
20.9633
12.795
5.99071
4.10715
9.64823
117.311
146.06
145.921
146.177
146.015
114.129
)
;
    }
    stator
    {
        type            calculated;
        value           nonuniform List<scalar> 
260
(
9.99434
2.93287
2.93124
2.82984
1.70168
1.17659
1.09754
1.08466
1.0721
369.566
369.569
369.572
197.349
135.164
148.581
148.54
122.202
94.5321
85.0649
102.864
137.312
200.485
262.958
267.76
267.746
267.822
267.808
267.877
267.814
267.845
267.752
267.784
244.703
233.555
120.433
74.4114
63.4516
59.4389
59.0378
44.4333
24.1292
18.7575
498.38
498.48
498.48
498.48
498.48
498.48
498.48
498.481
498.48
499.808
499.808
499.808
499.808
499.808
499.808
499.808
499.808
499.808
499.808
499.806
499.76
499.732
499.73
499.633
497.503
481.495
444.228
396.484
346.98
320.965
331.306
331.325
331.326
324.203
382.242
412.96
412.963
412.96
412.963
412.96
412.963
388.283
113.784
113.99
150.256
185.524
185.388
177.854
174.515
228.707
310.804
369.559
369.562
369.566
4.05311
1.51567
1.51277
1.45432
1.43335
1.39529
1.31007
1.18956
1.08635
1.03344
1.02935
1.0721
183.341
182.938
183.083
182.938
182.942
172.887
165.75
164.526
178.015
207.405
233.498
233.555
122.547
119.601
119.481
119.446
115.802
98.3128
79.3487
69.2254
69.205
70.8586
148.585
244.703
499.393
499.393
499.393
499.393
499.393
499.335
499.335
499.387
499.526
499.658
499.781
499.808
499.257
483.286
471.117
475.414
490.217
490.214
490.053
492.829
497.628
498.44
498.481
498.48
148.856
52.8604
29.7068
29.7246
29.6942
29.7411
32.9754